============================== echo of input deck ==============================
Title "FH-ClH-BrH-bsses"

Start FH-ClH-BrH-bsses

echo

geometry noautoz noautosym
F    -1.17122635    -1.50097392     0.00007449
H    -0.13324667    -1.35207024     0.00008831
Cl   -1.63851812     1.26560296     0.00006385
H    -1.62896618    -0.22316562     0.00001913
Br    1.53507290    -0.09220677     0.00019504
H     0.31497411     0.90841123     0.00012631
end

basis "ao basis"
  H    library    3-21g
  F    library    3-21g
  Cl   library    3-21g
  Br   library    3-21g
  bqH  library H  3-21g
  bqF  library F  3-21g
  bqCl library Cl 3-21g
  bqBr library Br 3-21g
END

dft
 direct
 iterations 100
end

driver
clear
end

bsse
 mon uno 1 2
 mon dos 3 4
 mon tres 5 6
end

task dft energy
dft
 grid fine
end
task dft freq
================================================================================

         Total DFT energy =    -3115.152217128596
         Total DFT energy =      -99.208506628775
         Total DFT energy =      -99.229957221566
         Total DFT energy =     -457.063791085085
         Total DFT energy =     -457.068115409183
         Total DFT energy =    -2558.787856978425
         Total DFT energy =    -2558.792590439927
         Total DFT energy =    -3115.152217357280

 Output coordinates in angstroms (scale by  1.889725989 to convert to a.u.)

  No.       Tag          Charge          X              Y              Z
 ---- ---------------- ---------- -------------- -------------- --------------
    1 Br                  35.0000     1.31812809    -0.15646339     0.00005729
    2 H                    1.0000     0.09802930     0.84415461    -0.00001144

         Total DFT energy =      -99.208507788556
         Total DFT energy =      -99.229957052627
         Total DFT energy =     -457.063793208508
         Total DFT energy =     -457.068116569583

 Vector   48  Occ=0.000000D+00  E= 1.378291D+02

 Vector   49  Occ=0.000000D+00  E= 1.378677D+02

 Vector   50  Occ=0.000000D+00  E= 1.379083D+02

 Vector   51  Occ=0.000000D+00  E= 7.046899D+02

         Total DFT energy =    -2558.787862372779

 Vector    1  Occ=2.000000D+00  E=-4.768544D+02

 Vector    2  Occ=2.000000D+00  E=-6.130952D+01

 Vector    3  Occ=2.000000D+00  E=-5.505391D+01

 Vector    4  Occ=2.000000D+00  E=-5.504846D+01

 Vector    5  Occ=2.000000D+00  E=-5.504846D+01

 Vector    6  Occ=2.000000D+00  E=-8.285191D+00

 Vector    7  Occ=2.000000D+00  E=-6.149813D+00

 Vector    8  Occ=2.000000D+00  E=-6.131208D+00

 Vector    9  Occ=2.000000D+00  E=-6.131208D+00

 Vector   10  Occ=2.000000D+00  E=-2.346139D+00

 Vector   11  Occ=2.000000D+00  E=-2.340597D+00

 Vector   12  Occ=2.000000D+00  E=-2.340597D+00

 Vector   13  Occ=2.000000D+00  E=-2.327326D+00

 Vector   14  Occ=2.000000D+00  E=-2.327326D+00

 Vector   15  Occ=2.000000D+00  E=-7.097652D-01

 Vector   16  Occ=2.000000D+00  E=-3.866129D-01

 Vector   17  Occ=2.000000D+00  E=-2.522765D-01

 Vector   18  Occ=2.000000D+00  E=-2.522765D-01

 Vector   19  Occ=0.000000D+00  E=-6.877320D-02

 Vector   20  Occ=0.000000D+00  E= 5.454280D-01

 Vector   21  Occ=0.000000D+00  E= 5.720945D-01

 Vector   22  Occ=0.000000D+00  E= 5.720945D-01

 Vector   23  Occ=0.000000D+00  E= 6.191012D-01

 Vector   24  Occ=0.000000D+00  E= 8.195435D-01

 Vector   25  Occ=0.000000D+00  E= 2.321410D+01

         Total DFT energy =    -2558.792598166661

                       DFT Final Molecular Orbital Analysis
                       ------------------------------------

 Vector    1  Occ=2.000000D+00  E=-4.768601D+02

 Vector    2  Occ=2.000000D+00  E=-6.131433D+01

 Vector    3  Occ=2.000000D+00  E=-5.505884D+01

 Vector    4  Occ=2.000000D+00  E=-5.505368D+01

 Vector    5  Occ=2.000000D+00  E=-5.505332D+01

 Vector    6  Occ=2.000000D+00  E=-8.288681D+00

 Vector    7  Occ=2.000000D+00  E=-6.153128D+00

 Vector    8  Occ=2.000000D+00  E=-6.134931D+00

 Vector    9  Occ=2.000000D+00  E=-6.134603D+00

 Vector   10  Occ=2.000000D+00  E=-2.350102D+00

 Vector   11  Occ=2.000000D+00  E=-2.344207D+00

 Vector   12  Occ=2.000000D+00  E=-2.343909D+00

 Vector   13  Occ=2.000000D+00  E=-2.331210D+00

 Vector   14  Occ=2.000000D+00  E=-2.330936D+00

 Vector   15  Occ=2.000000D+00  E=-7.114323D-01

 Vector   16  Occ=2.000000D+00  E=-3.879728D-01

 Vector   17  Occ=2.000000D+00  E=-2.550013D-01

 Vector   18  Occ=2.000000D+00  E=-2.540944D-01

 Vector   19  Occ=0.000000D+00  E=-7.332943D-02

 Vector   20  Occ=0.000000D+00  E= 1.333409D-01

 Vector   21  Occ=0.000000D+00  E= 2.007069D-01

 Vector   22  Occ=0.000000D+00  E= 3.233624D-01

 Vector   23  Occ=0.000000D+00  E= 3.261980D-01

 Vector   24  Occ=0.000000D+00  E= 3.873557D-01

 Vector   25  Occ=0.000000D+00  E= 4.920976D-01

 Vector   26  Occ=0.000000D+00  E= 5.615785D-01

 Vector   27  Occ=0.000000D+00  E= 5.738902D-01

 Vector   28  Occ=0.000000D+00  E= 5.962515D-01

 Vector   29  Occ=0.000000D+00  E= 7.109591D-01

 Vector   30  Occ=0.000000D+00  E= 9.594365D-01

 Vector   31  Occ=0.000000D+00  E= 1.010537D+00

 Vector   32  Occ=0.000000D+00  E= 1.131703D+00

 Vector   33  Occ=0.000000D+00  E= 1.194396D+00

 Vector   34  Occ=0.000000D+00  E= 1.253432D+00

 Vector   35  Occ=0.000000D+00  E= 1.469569D+00

 Vector   36  Occ=0.000000D+00  E= 1.939120D+00

 Vector   37  Occ=0.000000D+00  E= 1.945685D+00

 Vector   38  Occ=0.000000D+00  E= 1.991005D+00

 Vector   39  Occ=0.000000D+00  E= 2.324295D+00

 Vector   40  Occ=0.000000D+00  E= 2.386915D+00

 Vector   41  Occ=0.000000D+00  E= 5.424575D+00

 Vector   42  Occ=0.000000D+00  E= 7.695240D+00

 Vector   43  Occ=0.000000D+00  E= 8.442163D+00

 Vector   44  Occ=0.000000D+00  E= 8.575316D+00

 Vector   45  Occ=0.000000D+00  E= 8.745288D+00

 Vector   46  Occ=0.000000D+00  E= 2.359004D+01

 Vector   47  Occ=0.000000D+00  E= 2.362460D+01

 Vector   48  Occ=0.000000D+00  E= 2.363850D+01

 Vector   49  Occ=0.000000D+00  E= 2.370911D+01

 Vector   50  Occ=0.000000D+00  E= 4.360828D+01

 Vector   51  Occ=0.000000D+00  E= 1.554197D+02

     Multipole analysis of the density
     ---------------------------------

     L   x y z        total         alpha         beta         nuclear
     -   - - -        -----         -----         ----         -------
     0   0 0 0     -0.000000    -18.000000    -18.000000     36.000000

     1   1 0 0     -0.319379    -43.843080    -43.843080     87.366781
     1   0 1 0      0.385406      4.569369      4.569369     -8.753332
     1   0 0 1     -0.000018     -0.001893     -0.001893      0.003768

     2   2 0 0    -14.389709   -115.792292   -115.792292    217.194875
     2   1 1 0     -0.607015     12.437346     12.437346    -25.481707
     2   1 0 1      0.000021     -0.004707     -0.004707      0.009434
     2   0 2 0    -13.575800     -9.590158     -9.590158      5.604517
     2   0 1 1     -0.000047      0.000554      0.000554     -0.001155

 Zero-Point correction to Energy  =   15.785 kcal/mol  (  0.025155 au)
 Thermal correction to Energy     =   18.927 kcal/mol  (  0.030161 au)
 Thermal correction to Enthalpy   =   19.519 kcal/mol  (  0.031105 au)
 Total Entropy                    =   75.790 cal/mol-K
   - Translational                =   40.636 cal/mol-K (mol. weight = 136.9072)
   - Rotational                   =   27.701 cal/mol-K (symmetry #  =        1)
   - Vibrational                  =    7.453 cal/mol-K
   - Translational                  =    2.979 cal/mol-K
   - Rotational                     =    2.979 cal/mol-K
   - Vibrational                    =   10.014 cal/mol-K
 P.Frequency       -0.00       -0.00        0.00        0.00        0.00        0.00
 P.Frequency      162.08      229.34      353.92      485.27      615.86      717.16
 P.Frequency      768.59      828.22     1158.80     1399.52     1687.23     2640.90

 Normal Eigenvalue ||           Projected Infra Red Intensities
  Mode   [cm**-1]  || [atomic units] [(debye/angs)**2] [(KM/mol)] [arbitrary]
 ------ ---------- || -------------- ----------------- ---------- -----------
    1       -0.000 ||    0.000266           0.006         0.260       0.784
    2       -0.000 ||    0.000132           0.003         0.128       0.387
    3        0.000 ||    0.000026           0.001         0.026       0.078
    4        0.000 ||    0.000065           0.001         0.063       0.191
    5        0.000 ||    0.000110           0.003         0.107       0.324
    6        0.000 ||    0.000000           0.000         0.000       0.001
    7      162.079 ||    0.000010           0.000         0.010       0.031
    8      229.338 ||    0.000049           0.001         0.048       0.144
    9      353.918 ||    0.000165           0.004         0.161       0.485
   10      485.269 ||    0.031371           0.724        30.582      92.379
   11      615.864 ||    0.000505           0.012         0.492       1.486
   12      717.157 ||    0.024699           0.570        24.078      72.734
   13      768.591 ||    0.000559           0.013         0.545       1.645
   14      828.221 ||    0.000260           0.006         0.253       0.766
   15     1158.797 ||    0.000542           0.013         0.528       1.596
   16     1399.515 ||    0.001240           0.029         1.209       3.652
   17     1687.226 ||    0.000963           0.022         0.939       2.837
   18     2640.899 ||    0.000163           0.004         0.159       0.481
 ----------------------------------------------------------------------------

 Total times  cpu:       47.6s     wall:       48.6s
