============================== echo of input deck ==============================
echo

start xdm1

driver
clear
end

geometry big noautosym noautoz
C     1.109882   -1.344582    0.000000
O     2.255409   -1.127306    0.000000
O    -0.036542   -1.570343    0.000000
N    -1.182527    1.337759    0.000000
O     0.000000    1.495618    0.000000
N    -2.304648    1.188489    0.000000
end
geometry co2 noautosym noautoz
C     1.109882   -1.344582    0.000000
O     2.255409   -1.127306    0.000000
O    -0.036542   -1.570343    0.000000
end
geometry n2o noautosym noautoz
N    -1.182527    1.337759    0.000000
O     0.000000    1.495618    0.000000
N    -2.304648    1.188489    0.000000
end

basis spherical
* library aug-cc-pvdz
end

set geometry co2
dft
direct
xc b3lyp
vectors input atomic output co2.mos
end

task dft

set geometry n2o
dft
xc b3lyp
vectors input atomic output n2o.mos
end

task dft

set geometry big
dft
grid xfine
convergence energy 1d-8 lshift 0.
xdm a1 0.6224 a2 1.7068
vectors input fragment co2.mos n2o.mos output big.mos
end

task dft optimize
================================================================================

         Total DFT energy =     -188.614203754248
         Total DFT energy =     -184.692792803603
         Total DFT energy =     -373.311535565997
@ Step       Energy      Delta E   Gmax     Grms     Xrms     Xmax   Walltime
@ ---- ---------------- -------- -------- -------- -------- -------- --------
@    0    -373.31153557  0.0D+00  0.00015  0.00007  0.00000  0.00000    142.0
         Total DFT energy =     -373.311535942421

                       DFT Final Molecular Orbital Analysis
                       ------------------------------------

 Vector    1  Occ=2.000000D+00  E=-1.926127D+01

 Vector   59  Occ=0.000000D+00  E= 5.573527D-01

 Vector   60  Occ=0.000000D+00  E= 5.598988D-01

 Vector   61  Occ=0.000000D+00  E= 5.752312D-01

 Vector   62  Occ=0.000000D+00  E= 5.986806D-01

 Vector   63  Occ=0.000000D+00  E= 6.429421D-01

 Vector   64  Occ=0.000000D+00  E= 6.556520D-01

 Vector   65  Occ=0.000000D+00  E= 6.703250D-01

 Vector   66  Occ=0.000000D+00  E= 6.991023D-01

 Vector   67  Occ=0.000000D+00  E= 7.067403D-01

 Vector   68  Occ=0.000000D+00  E= 7.312161D-01

 Vector   69  Occ=0.000000D+00  E= 7.312802D-01

 Vector   70  Occ=0.000000D+00  E= 7.517079D-01

 Vector   71  Occ=0.000000D+00  E= 7.869270D-01

 Vector   72  Occ=0.000000D+00  E= 8.022785D-01

 Vector   73  Occ=0.000000D+00  E= 8.199520D-01

 Vector   74  Occ=0.000000D+00  E= 8.356609D-01

 Vector   75  Occ=0.000000D+00  E= 8.722089D-01

 Vector   76  Occ=0.000000D+00  E= 8.794283D-01

 Vector   77  Occ=0.000000D+00  E= 8.905873D-01

 Vector   78  Occ=0.000000D+00  E= 8.931963D-01

 Vector   79  Occ=0.000000D+00  E= 9.265250D-01

 Vector   80  Occ=0.000000D+00  E= 9.307640D-01

 Vector   81  Occ=0.000000D+00  E= 9.471570D-01

 Vector   82  Occ=0.000000D+00  E= 1.009272D+00

 Vector   83  Occ=0.000000D+00  E= 1.015886D+00

 Vector   84  Occ=0.000000D+00  E= 1.021882D+00

 Vector   85  Occ=0.000000D+00  E= 1.047517D+00

 Vector   86  Occ=0.000000D+00  E= 1.052533D+00

 Vector   87  Occ=0.000000D+00  E= 1.070059D+00

 Vector   88  Occ=0.000000D+00  E= 1.083318D+00

 Vector   89  Occ=0.000000D+00  E= 1.119666D+00

 Vector   90  Occ=0.000000D+00  E= 1.179562D+00

 Vector   91  Occ=0.000000D+00  E= 1.233998D+00

 Vector   92  Occ=0.000000D+00  E= 1.238723D+00

 Vector   93  Occ=0.000000D+00  E= 1.269659D+00

 Vector   94  Occ=0.000000D+00  E= 1.302102D+00

 Vector   95  Occ=0.000000D+00  E= 1.392904D+00

 Vector   96  Occ=0.000000D+00  E= 1.439959D+00

 Vector   97  Occ=0.000000D+00  E= 1.465803D+00

 Vector   98  Occ=0.000000D+00  E= 1.492445D+00

 Vector   99  Occ=0.000000D+00  E= 1.502444D+00

 Vector  100  Occ=0.000000D+00  E= 1.508255D+00

 Vector  101  Occ=0.000000D+00  E= 1.611965D+00

 Vector  102  Occ=0.000000D+00  E= 1.645352D+00

 Vector  103  Occ=0.000000D+00  E= 1.773676D+00

 Vector  104  Occ=0.000000D+00  E= 1.844029D+00

 Vector  105  Occ=0.000000D+00  E= 1.936948D+00

 Vector  106  Occ=0.000000D+00  E= 1.943858D+00

 Vector  107  Occ=0.000000D+00  E= 1.980923D+00

 Vector  108  Occ=0.000000D+00  E= 2.025575D+00

 Vector  109  Occ=0.000000D+00  E= 2.026893D+00

 Vector  110  Occ=0.000000D+00  E= 2.054499D+00

 Vector  111  Occ=0.000000D+00  E= 2.126548D+00

 Vector  112  Occ=0.000000D+00  E= 2.282571D+00

 Vector  113  Occ=0.000000D+00  E= 2.306056D+00

 Vector  114  Occ=0.000000D+00  E= 2.389781D+00

 Vector  115  Occ=0.000000D+00  E= 2.490253D+00

 Vector  116  Occ=0.000000D+00  E= 2.503212D+00

 Vector  117  Occ=0.000000D+00  E= 2.691696D+00

 Vector  118  Occ=0.000000D+00  E= 2.706292D+00

 Vector  119  Occ=0.000000D+00  E= 2.733639D+00

 Vector  120  Occ=0.000000D+00  E= 2.852297D+00

 Vector  121  Occ=0.000000D+00  E= 3.145816D+00

 Vector  122  Occ=0.000000D+00  E= 3.156323D+00

 Vector  123  Occ=0.000000D+00  E= 3.192127D+00

 Vector  124  Occ=0.000000D+00  E= 3.194377D+00

 Vector  125  Occ=0.000000D+00  E= 3.235624D+00

 Vector  126  Occ=0.000000D+00  E= 3.259449D+00

 Vector  127  Occ=0.000000D+00  E= 3.279996D+00

 Vector  128  Occ=0.000000D+00  E= 3.290979D+00

 Vector  129  Occ=0.000000D+00  E= 3.299251D+00

 Vector  130  Occ=0.000000D+00  E= 3.337393D+00

 Vector  131  Occ=0.000000D+00  E= 3.372705D+00

 Vector  132  Occ=0.000000D+00  E= 3.529213D+00

 Vector  133  Occ=0.000000D+00  E= 3.545460D+00

 Vector  134  Occ=0.000000D+00  E= 3.555783D+00

 Vector  135  Occ=0.000000D+00  E= 3.605619D+00

 Vector  136  Occ=0.000000D+00  E= 3.679159D+00

 Vector  137  Occ=0.000000D+00  E= 3.787747D+00

 Vector  138  Occ=0.000000D+00  E= 4.062634D+00

     Multipole analysis of the density
     ---------------------------------

     L   x y z        total         alpha         beta         nuclear
     -   - - -        -----         -----         ----         -------
     0   0 0 0     -0.000000    -22.000000    -22.000000     44.000000

     1   1 0 0     -0.059436     -0.029703     -0.029703     -0.000030
     1   0 1 0      0.012423      0.005989      0.005989      0.000446
     1   0 0 1     -0.000000     -0.000000     -0.000000      0.000000

     2   2 0 0    -28.081357   -183.812234   -183.812234    339.543111
     2   1 1 0     -1.221341    104.915483    104.915483   -211.052308
     2   1 0 1      0.000000      0.000000      0.000000      0.000000
     2   0 2 0    -22.852733   -156.204857   -156.204857    289.556980
     2   0 1 1     -0.000000     -0.000000     -0.000000     -0.000000

         Total DFT energy =   -373.311535942421
@    1    -373.31153594 -3.8D-07  0.00014  0.00006  0.00036  0.00071    215.8
@    1    -373.31153594 -3.8D-07  0.00014  0.00006  0.00036  0.00071    215.8

 Output coordinates in angstroms (scale by  1.889725989 to convert to a.u.)

  No.       Tag          Charge          X              Y              Z
 ---- ---------------- ---------- -------------- -------------- --------------
    1 C                    6.0000     1.11006423    -1.34490821    -0.00000000
    2 O                    8.0000     2.25556130    -1.12741110     0.00000000
    3 O                    8.0000    -0.03638634    -1.57070653     0.00000000
    4 N                    7.0000    -1.18267941     1.33796960     0.00000000
    5 O                    8.0000    -0.00014182     1.49599638    -0.00000000
    6 N                    7.0000    -2.30484437     1.18869541    -0.00000000

 Total times  cpu:      215.6s     wall:      215.8s
