============================== echo of input deck ==============================
echo
start diels-alder-dat

title "parent diels-alder - constrained geometry optimization + saddle search"

# tests constrained optimization, saddle search,
# use of constraints with symmetry

# norbornene = -269.369082   r = 1.56877

geometry autosym  # Equil nonbornene geometry
  C   -0.56970319    -1.24200248     0.66145412
  C   -0.56970319    -1.24200248    -0.66145412
  C    0.30163937    -0.07585222     1.13282212
  C    0.30163937    -0.07585222    -1.13282212
  C    1.36288212    -0.05150460     0.00000000
  C   -0.51211483     1.21947833     0.78501047
  C   -0.51211483     1.21947833    -0.78501047
  H    0.66051824    -0.12617315    -2.14778696
  H    0.66051824    -0.12617315     2.14778696
  H    1.96152178     0.85159285     0.00000000
  H   -1.51147362     1.18303369    -1.19517710
  H   -1.51147362     1.18303369     1.19517710
  H   -1.13480012    -1.87777806    -1.31030500
  H   -1.13480012    -1.87777806     1.31030500
  H    1.99285293    -0.93012745     0.00000000
  H   -0.01020068     2.09823148     1.17132500
  H   -0.01020068     2.09823148    -1.17132500
end

basis
  c library 3-21g
  h library 3-21g
end

scf; print low; thresh 1e-8; end

geometry adjust  # move to guess geometry & apply constraints
  zcoord
    bond 6 3 2.2 r constant
    bond 7 4 2.2 r constant
  end
end

#pause
task scf optimize  # relax with constraints

geometry adjust  # release constraints
  zcoord
    bond 6 3 2.2 r
    bond 7 4 2.2 r
  end
end

task scf saddle  # go for the TS

================================================================================

         Total SCF energy =   -269.211796662986
@ Step       Energy      Delta E   Gmax     Grms     Xrms     Xmax   Walltime
@ ---- ---------------- -------- -------- -------- -------- -------- --------
@    0    -269.21179666  0.0D+00  0.03357  0.00625  0.00000  0.00000      0.8
         Total SCF energy =   -269.236222571831
         Total SCF energy =   -269.247881775316
@    1    -269.24788178 -3.6D-02  0.02408  0.00485  0.15304  0.29794      2.1
         Total SCF energy =   -269.258567051487
         Total SCF energy =   -269.261551886237
@    2    -269.26155189 -1.4D-02  0.01313  0.00261  0.08448  0.20884      3.3
         Total SCF energy =   -269.265813789574
         Total SCF energy =   -269.267675623913
@    3    -269.26767562 -6.1D-03  0.01590  0.00242  0.06923  0.16424      4.6
         Total SCF energy =   -269.269592510929
         Total SCF energy =   -269.269692495536
@    4    -269.26969250 -2.0D-03  0.00268  0.00055  0.03489  0.09006      5.7
         Total SCF energy =   -269.270006091554
         Total SCF energy =   -269.270014375527
@    5    -269.27001438 -3.2D-04  0.00123  0.00028  0.01815  0.05445      6.9
         Total SCF energy =   -269.270099552424
         Total SCF energy =   -269.270112496953
@    6    -269.27011250 -9.8D-05  0.00145  0.00028  0.00664  0.01627      7.9
         Total SCF energy =   -269.270151165231
         Total SCF energy =   -269.270156361931
@    7    -269.27015636 -4.4D-05  0.00040  0.00010  0.00442  0.01493      9.0
         Total SCF energy =   -269.270164465961
         Total SCF energy =   -269.270165469292
@    8    -269.27016547 -9.1D-06  0.00056  0.00007  0.00200  0.00459     10.1
         Total SCF energy =   -269.270167933160
         Total SCF energy =   -269.270168187192
@    9    -269.27016819 -2.7D-06  0.00033  0.00005  0.00124  0.00349     11.1
         Total SCF energy =   -269.270169427460
         Total SCF energy =   -269.270169908380
@   10    -269.27016991 -1.7D-06  0.00011  0.00003  0.00118  0.00339     12.1
         Total SCF energy =   -269.270170400929
         Total SCF energy =   -269.270170537506
@   11    -269.27017054 -6.3D-07  0.00006  0.00001  0.00071  0.00225     13.1
         Total SCF energy =   -269.270170644692
         Total SCF energy =   -269.270170670851
@   12    -269.27017067 -1.3D-07  0.00003  0.00001  0.00027  0.00089     14.1
@   12    -269.27017067 -1.3D-07  0.00003  0.00001  0.00027  0.00089     14.1
         Total SCF energy =   -269.270170670875
@ Step       Energy      Delta E   Gmax     Grms     Xrms     Xmax   Walltime
@ ---- ---------------- -------- -------- -------- -------- -------- --------
@    0    -269.27017067  0.0D+00  0.00130  0.00017  0.00000  0.00000     15.0
         Total SCF energy =   -269.270167294448
@    1    -269.27016729  3.4D-06  0.00129  0.00017  0.00035  0.00080     15.6
         Total SCF energy =   -269.269976503796
@    2    -269.26997650  1.9D-04  0.00334  0.00045  0.00994  0.02925     16.3
         Total SCF energy =   -269.269430197465
@    3    -269.26943020  5.5D-04  0.01179  0.00157  0.01621  0.04139     17.0
         Total SCF energy =   -269.269815545337
@    4    -269.26981555 -3.9D-04  0.01020  0.00121  0.01756  0.03455     17.8
         Total SCF energy =   -269.269268250245
@    5    -269.26926825  5.5D-04  0.00849  0.00141  0.02341  0.04741     18.6
         Total SCF energy =   -269.269832161267
@    6    -269.26983216 -5.6D-04  0.00183  0.00049  0.02828  0.07183     19.3
         Total SCF energy =   -269.269653595331
@    7    -269.26965360  1.8D-04  0.00480  0.00081  0.03443  0.08383     20.0
         Total SCF energy =   -269.268920134065
@    8    -269.26892013  7.3D-04  0.00856  0.00163  0.02797  0.05926     20.7
         Total SCF energy =   -269.269863075989
@    9    -269.26986308 -9.4D-04  0.00336  0.00072  0.03326  0.06367     21.5
         Total SCF energy =   -269.269891916432
@   10    -269.26989192 -2.9D-05  0.00313  0.00060  0.02257  0.06230     22.3
         Total SCF energy =   -269.270096500763
@   11    -269.27009650 -2.0D-04  0.00265  0.00046  0.02057  0.06079     23.0
         Total SCF energy =   -269.270019688674
@   12    -269.27001969  7.7D-05  0.00080  0.00023  0.01739  0.05186     23.8
         Total SCF energy =   -269.270128741255
@   13    -269.27012874 -1.1D-04  0.00128  0.00020  0.01527  0.04461     24.6
         Total SCF energy =   -269.270051425547
@   14    -269.27005143  7.7D-05  0.00153  0.00032  0.01632  0.03841     25.3
         Total SCF energy =   -269.270123478458
@   15    -269.27012348 -7.2D-05  0.00087  0.00016  0.01377  0.04198     26.0
         Total SCF energy =   -269.270151770819
@   16    -269.27015177 -2.8D-05  0.00032  0.00007  0.01075  0.03309     26.7
         Total SCF energy =   -269.270158504372
@   17    -269.27015850 -6.7D-06  0.00012  0.00002  0.00385  0.01042     27.3
         Total SCF energy =   -269.270158700358
@   18    -269.27015870 -2.0D-07  0.00008  0.00002  0.00064  0.00207     27.9
         Total SCF energy =   -269.270158803714
@   19    -269.27015880 -1.0D-07  0.00001  0.00000  0.00027  0.00078     28.5
@   19    -269.27015880 -1.0D-07  0.00001  0.00000  0.00027  0.00078     28.5

 Output coordinates in angstroms (scale by  1.889725989 to convert to a.u.)

  No.       Tag          Charge          X              Y              Z
 ---- ---------------- ---------- -------------- -------------- --------------
    1 C                    6.0000    -0.75249272     1.15805382     0.70032331
    2 C                    6.0000    -0.75249272     1.15805382    -0.70032331
    3 C                    6.0000     0.34869668     0.45427286     1.15705753
    4 C                    6.0000     0.34869668     0.45427286    -1.15705753
    5 C                    6.0000     1.32924554     0.37641732     0.00000000
    6 C                    6.0000    -0.31566219    -1.59452054     0.68600873
    7 C                    6.0000    -0.31566219    -1.59452054    -0.68600873
    8 H                    1.0000     0.64690186     0.38239333    -2.18226553
    9 H                    1.0000     0.64690186     0.38239333     2.18226553
   10 H                    1.0000     1.99132678    -0.47256901     0.00000000
   11 H                    1.0000    -1.23605227    -1.53619461    -1.22975868
   12 H                    1.0000    -1.23605227    -1.53619461     1.22975868
   13 H                    1.0000    -1.54502867     1.52898671    -1.31538916
   14 H                    1.0000    -1.54502867     1.52898671     1.31538916
   15 H                    1.0000     1.91763292     1.29510383     0.00000000
   16 H                    1.0000     0.50664265    -2.02414265     1.22622489
   17 H                    1.0000     0.50664265    -2.02414265    -1.22622489

 Total times  cpu:       26.9s     wall:       28.5s
