============================== echo of input deck ==============================
echo
start diels-alder-dat

title "parent diels-alder - constrained geometry optimization + saddle search"

# tests constrained optimization, saddle search,
# use of constraints with symmetry

# norbornene = -269.369082   r = 1.56877

geometry autosym  # Equil nonbornene geometry
  C   -0.56970319    -1.24200248     0.66145412
  C   -0.56970319    -1.24200248    -0.66145412
  C    0.30163937    -0.07585222     1.13282212
  C    0.30163937    -0.07585222    -1.13282212
  C    1.36288212    -0.05150460     0.00000000
  C   -0.51211483     1.21947833     0.78501047
  C   -0.51211483     1.21947833    -0.78501047
  H    0.66051824    -0.12617315    -2.14778696
  H    0.66051824    -0.12617315     2.14778696
  H    1.96152178     0.85159285     0.00000000
  H   -1.51147362     1.18303369    -1.19517710
  H   -1.51147362     1.18303369     1.19517710
  H   -1.13480012    -1.87777806    -1.31030500
  H   -1.13480012    -1.87777806     1.31030500
  H    1.99285293    -0.93012745     0.00000000
  H   -0.01020068     2.09823148     1.17132500
  H   -0.01020068     2.09823148    -1.17132500
end

basis
  c library 3-21g
  h library 3-21g
end

scf; print low; thresh 1e-8; end

geometry adjust  # move to guess geometry & apply constraints
  zcoord
    bond 6 3 2.2 r constant
    bond 7 4 2.2 r constant
  end
end

#pause
task scf optimize  # relax with constraints

geometry adjust  # release constraints
  zcoord
    bond 6 3 2.2 r
    bond 7 4 2.2 r
  end
end

task scf saddle  # go for the TS

================================================================================

         Total SCF energy =   -269.211796661974
@ Step       Energy      Delta E   Gmax     Grms     Xrms     Xmax   Walltime
@ ---- ---------------- -------- -------- -------- -------- -------- --------
@    0    -269.21179666  0.0D+00  0.03357  0.00625  0.00000  0.00000      3.6
         Total SCF energy =   -269.236222568387
         Total SCF energy =   -269.247881770351
@    1    -269.24788177 -3.6D-02  0.02408  0.00485  0.15304  0.29794      7.7
         Total SCF energy =   -269.258567047434
         Total SCF energy =   -269.261551881410
@    2    -269.26155188 -1.4D-02  0.01313  0.00261  0.08448  0.20884     11.4
         Total SCF energy =   -269.265813785066
         Total SCF energy =   -269.267675621855
@    3    -269.26767562 -6.1D-03  0.01590  0.00242  0.06923  0.16424     15.3
         Total SCF energy =   -269.269592510426
         Total SCF energy =   -269.269692495352
@    4    -269.26969250 -2.0D-03  0.00268  0.00055  0.03489  0.09006     18.9
         Total SCF energy =   -269.270006091488
         Total SCF energy =   -269.270014375542
@    5    -269.27001438 -3.2D-04  0.00123  0.00028  0.01815  0.05445     22.9
         Total SCF energy =   -269.270099552414
         Total SCF energy =   -269.270112496908
@    6    -269.27011250 -9.8D-05  0.00145  0.00028  0.00664  0.01627     26.2
         Total SCF energy =   -269.270151165217
         Total SCF energy =   -269.270156361893
@    7    -269.27015636 -4.4D-05  0.00040  0.00010  0.00442  0.01493     29.6
         Total SCF energy =   -269.270164465898
         Total SCF energy =   -269.270165469261
@    8    -269.27016547 -9.1D-06  0.00056  0.00007  0.00200  0.00459     32.9
         Total SCF energy =   -269.270167933159
         Total SCF energy =   -269.270168187188
@    9    -269.27016819 -2.7D-06  0.00033  0.00005  0.00124  0.00349     36.0
         Total SCF energy =   -269.270169427471
         Total SCF energy =   -269.270169908378
@   10    -269.27016991 -1.7D-06  0.00011  0.00003  0.00118  0.00339     39.2
         Total SCF energy =   -269.270170400854
         Total SCF energy =   -269.270170537525
@   11    -269.27017054 -6.3D-07  0.00006  0.00001  0.00071  0.00225     42.2
         Total SCF energy =   -269.270170644666
         Total SCF energy =   -269.270170670846
@   12    -269.27017067 -1.3D-07  0.00003  0.00001  0.00027  0.00089     45.2
@   12    -269.27017067 -1.3D-07  0.00003  0.00001  0.00027  0.00089     45.2
         Total SCF energy =   -269.270170670828
@ Step       Energy      Delta E   Gmax     Grms     Xrms     Xmax   Walltime
@ ---- ---------------- -------- -------- -------- -------- -------- --------
@    0    -269.27017067  0.0D+00  0.00130  0.00017  0.00000  0.00000     46.3
         Total SCF energy =   -269.270167294403
@    1    -269.27016729  3.4D-06  0.00129  0.00017  0.00035  0.00073     48.1
         Total SCF energy =   -269.270158586216
@    2    -269.27015859  8.7D-06  0.00010  0.00002  0.00234  0.00550     50.1
         Total SCF energy =   -269.270158722802
@    3    -269.27015872 -1.4D-07  0.00002  0.00000  0.00016  0.00033     51.9
@    3    -269.27015872 -1.4D-07  0.00002  0.00000  0.00016  0.00033     51.9

 Output coordinates in angstroms (scale by  1.889725989 to convert to a.u.)

  No.       Tag          Charge          X              Y              Z
 ---- ---------------- ---------- -------------- -------------- --------------
    1 C                    6.0000    -0.45184154     1.30510304     0.70032077
    2 C                    6.0000    -0.45184154     1.30510304    -0.70032077
    3 C                    6.0000     0.44776798     0.35717009     1.15706079
    4 C                    6.0000     0.44776798     0.35717009    -1.15706079
    5 C                    6.0000     1.38085459     0.04582550     0.00000000
    6 C                    6.0000    -0.68977534    -1.47179104     0.68600147
    7 C                    6.0000    -0.68977534    -1.47179104    -0.68600147
    8 H                    1.0000     0.71984431     0.21550434    -2.18226890
    9 H                    1.0000     0.71984431     0.21550434     2.18226890
   10 H                    1.0000     1.81943318    -0.93740737     0.00000000
   11 H                    1.0000    -1.56900742    -1.19361532    -1.22984587
   12 H                    1.0000    -1.56900742    -1.19361532     1.22984587
   13 H                    1.0000    -1.13229859     1.85527460    -1.31538286
   14 H                    1.0000    -1.13229859     1.85527460     1.31538286
   15 H                    1.0000     2.17280329     0.79616252     0.00000000
   16 H                    1.0000     0.00493016    -2.08677025     1.22619141
   17 H                    1.0000     0.00493016    -2.08677025    -1.22619141

 Total times  cpu:       39.9s     wall:       51.9s
