============================== echo of input deck ==============================
echo
start acr-lcblyp

geometry units bohr
C         -3.4889915040            0.0757243564            0.0000000000
C         -1.1660674990           -0.8921396346            0.0000000000
C          1.0745076249            0.7531195619            0.0000000000
O          3.2306456355           -0.0048697519            0.0000000000
H         -5.1598072439           -1.1007803728            0.0000000000
H         -3.7843301456            2.1030589485            0.0000000000
H         -0.8202431053           -2.9101405740            0.0000000000
H          0.6573804135            2.8079130427            0.0000000000
end

basis spherical
 * library "cc-pVTZ"
end

#basis "cd basis"
#*  library "DGauss A2 DFT Coulomb Fitting"
#end

set int:cando_txs f

dft
 xc xcamb88 1.00 lyp 0.81 vwn_5 0.19 hfexch 1.00
 cam 0.33 cam_alpha 0.19 cam_beta 0.81
 direct
# odft
# mult 1
end
task dft energy

property
 center com
 dipole
end
task dft property
================================================================================

 Output coordinates in a.u. (scale by  1.000000000 to convert to a.u.)

  No.       Tag          Charge          X              Y              Z
 ---- ---------------- ---------- -------------- -------------- --------------
    1 C                    6.0000     0.25763286     3.32137763     0.00000000
    2 C                    6.0000    -0.84664484     1.06011528     0.00000000
    3 C                    6.0000     0.66247352    -1.27432608     0.00000000
    4 O                    8.0000    -0.22238340    -3.38157718     0.00000000
    5 H                    1.0000    -0.81743964     5.05919457     0.00000000
    6 H                    1.0000     2.29894170     3.49564380     0.00000000
    7 H                    1.0000    -2.88163854     0.83489769     0.00000000
    8 H                    1.0000     2.73843448    -0.98011961     0.00000000

         Total DFT energy =     -191.746872724273
         Total DFT energy =     -191.746872801584

                       DFT Final Molecular Orbital Analysis
                       ------------------------------------

 Vector    1  Occ=2.000000D+00  E=-1.926169D+01  Symmetry=a'

 Vector   97  Occ=0.000000D+00  E= 3.001611D+00  Symmetry=a'

 Vector   98  Occ=0.000000D+00  E= 3.017649D+00  Symmetry=a'

 Vector   99  Occ=0.000000D+00  E= 3.042458D+00  Symmetry=a"

 Vector  100  Occ=0.000000D+00  E= 3.061891D+00  Symmetry=a'

 Vector  101  Occ=0.000000D+00  E= 3.063594D+00  Symmetry=a"

 Vector  102  Occ=0.000000D+00  E= 3.112116D+00  Symmetry=a'

 Vector  103  Occ=0.000000D+00  E= 3.168607D+00  Symmetry=a"

 Vector  104  Occ=0.000000D+00  E= 3.174685D+00  Symmetry=a'

 Vector  105  Occ=0.000000D+00  E= 3.199171D+00  Symmetry=a'

 Vector  106  Occ=0.000000D+00  E= 3.238884D+00  Symmetry=a"

 Vector  107  Occ=0.000000D+00  E= 3.270033D+00  Symmetry=a"

 Vector  108  Occ=0.000000D+00  E= 3.272318D+00  Symmetry=a'

 Vector  109  Occ=0.000000D+00  E= 3.333784D+00  Symmetry=a'

 Vector  110  Occ=0.000000D+00  E= 3.360070D+00  Symmetry=a"

 Vector  111  Occ=0.000000D+00  E= 3.406298D+00  Symmetry=a"

 Vector  112  Occ=0.000000D+00  E= 3.407415D+00  Symmetry=a'

 Vector  113  Occ=0.000000D+00  E= 3.468657D+00  Symmetry=a'

 Vector  114  Occ=0.000000D+00  E= 3.502718D+00  Symmetry=a'

 Vector  115  Occ=0.000000D+00  E= 3.557652D+00  Symmetry=a'

 Vector  116  Occ=0.000000D+00  E= 3.611216D+00  Symmetry=a'

 Vector  117  Occ=0.000000D+00  E= 3.620238D+00  Symmetry=a"

 Vector  118  Occ=0.000000D+00  E= 3.696439D+00  Symmetry=a'

 Vector  119  Occ=0.000000D+00  E= 3.723926D+00  Symmetry=a"

 Vector  120  Occ=0.000000D+00  E= 3.727315D+00  Symmetry=a'

 Vector  121  Occ=0.000000D+00  E= 3.803735D+00  Symmetry=a'

 Vector  122  Occ=0.000000D+00  E= 3.822006D+00  Symmetry=a"

 Vector  123  Occ=0.000000D+00  E= 3.857453D+00  Symmetry=a'

 Vector  124  Occ=0.000000D+00  E= 3.916888D+00  Symmetry=a"

 Vector  125  Occ=0.000000D+00  E= 3.948354D+00  Symmetry=a'

 Vector  126  Occ=0.000000D+00  E= 3.984171D+00  Symmetry=a"

 Vector  127  Occ=0.000000D+00  E= 3.993436D+00  Symmetry=a'

 Vector  128  Occ=0.000000D+00  E= 4.013160D+00  Symmetry=a'

 Vector  129  Occ=0.000000D+00  E= 4.056670D+00  Symmetry=a"

 Vector  130  Occ=0.000000D+00  E= 4.090314D+00  Symmetry=a"

 Vector  131  Occ=0.000000D+00  E= 4.116518D+00  Symmetry=a'

 Vector  132  Occ=0.000000D+00  E= 4.181966D+00  Symmetry=a"

 Vector  133  Occ=0.000000D+00  E= 4.242552D+00  Symmetry=a'

 Vector  134  Occ=0.000000D+00  E= 4.243988D+00  Symmetry=a"

 Vector  135  Occ=0.000000D+00  E= 4.300716D+00  Symmetry=a'

 Vector  136  Occ=0.000000D+00  E= 4.353128D+00  Symmetry=a'

 Vector  137  Occ=0.000000D+00  E= 4.379907D+00  Symmetry=a"

 Vector  138  Occ=0.000000D+00  E= 4.432101D+00  Symmetry=a'

 Vector  139  Occ=0.000000D+00  E= 4.478569D+00  Symmetry=a'

 Vector  140  Occ=0.000000D+00  E= 4.515468D+00  Symmetry=a'

 Vector  141  Occ=0.000000D+00  E= 4.579701D+00  Symmetry=a"

 Vector  142  Occ=0.000000D+00  E= 4.604633D+00  Symmetry=a'

 Vector  143  Occ=0.000000D+00  E= 4.753740D+00  Symmetry=a'

 Vector  144  Occ=0.000000D+00  E= 4.761053D+00  Symmetry=a"

 Vector  145  Occ=0.000000D+00  E= 4.826787D+00  Symmetry=a'

 Vector  146  Occ=0.000000D+00  E= 4.869339D+00  Symmetry=a"

 Vector  147  Occ=0.000000D+00  E= 4.957020D+00  Symmetry=a'

 Vector  148  Occ=0.000000D+00  E= 4.975218D+00  Symmetry=a'

 Vector  149  Occ=0.000000D+00  E= 5.031242D+00  Symmetry=a'

 Vector  150  Occ=0.000000D+00  E= 5.063199D+00  Symmetry=a"

 Vector  151  Occ=0.000000D+00  E= 5.150579D+00  Symmetry=a'

 Vector  152  Occ=0.000000D+00  E= 5.213394D+00  Symmetry=a'

 Vector  153  Occ=0.000000D+00  E= 5.229604D+00  Symmetry=a"

 Vector  154  Occ=0.000000D+00  E= 5.303999D+00  Symmetry=a'

 Vector  155  Occ=0.000000D+00  E= 5.364090D+00  Symmetry=a"

 Vector  156  Occ=0.000000D+00  E= 5.436945D+00  Symmetry=a'

 Vector  157  Occ=0.000000D+00  E= 5.510309D+00  Symmetry=a'

 Vector  158  Occ=0.000000D+00  E= 5.552044D+00  Symmetry=a'

 Vector  159  Occ=0.000000D+00  E= 5.651703D+00  Symmetry=a'

 Vector  160  Occ=0.000000D+00  E= 5.784230D+00  Symmetry=a"

 Vector  161  Occ=0.000000D+00  E= 5.911872D+00  Symmetry=a'

 Vector  162  Occ=0.000000D+00  E= 6.026772D+00  Symmetry=a'

 Vector  163  Occ=0.000000D+00  E= 6.089659D+00  Symmetry=a'

 Vector  164  Occ=0.000000D+00  E= 6.256214D+00  Symmetry=a'

 Vector  165  Occ=0.000000D+00  E= 6.312391D+00  Symmetry=a"

 Vector  166  Occ=0.000000D+00  E= 6.465577D+00  Symmetry=a'

 Vector  167  Occ=0.000000D+00  E= 6.489501D+00  Symmetry=a"

 Vector  168  Occ=0.000000D+00  E= 6.570941D+00  Symmetry=a'

 Vector  169  Occ=0.000000D+00  E= 6.948670D+00  Symmetry=a"

 Vector  170  Occ=0.000000D+00  E= 7.054949D+00  Symmetry=a'

 Vector  171  Occ=0.000000D+00  E= 7.146240D+00  Symmetry=a'

 Vector  172  Occ=0.000000D+00  E= 7.238755D+00  Symmetry=a'

 Vector  173  Occ=0.000000D+00  E= 1.053547D+01  Symmetry=a'

 Vector  174  Occ=0.000000D+00  E= 1.119272D+01  Symmetry=a'

 Vector  175  Occ=0.000000D+00  E= 1.306140D+01  Symmetry=a'

 Vector  176  Occ=0.000000D+00  E= 1.425803D+01  Symmetry=a'

     Multipole analysis of the density
     ---------------------------------

     L   x y z        total         alpha         beta         nuclear
     -   - - -        -----         -----         ----         -------
     0   0 0 0     -0.000000    -15.000000    -15.000000     30.000000

     1   1 0 0      0.276728      0.138364      0.138364      0.000000
     1   0 1 0      1.282430      0.641215      0.641215     -0.000000
     1   0 0 1     -0.000000     -0.000000     -0.000000      0.000000

     2   2 0 0    -16.181300    -22.832730    -22.832730     29.484160
     2   1 1 0     -0.623821     -0.067194     -0.067194     -0.489433
     2   1 0 1      0.000000      0.000000      0.000000      0.000000
     2   0 2 0    -20.135098   -116.882040   -116.882040    213.628982
     2   0 1 1      0.000000      0.000000      0.000000      0.000000

 Total times  cpu:       99.4s     wall:      100.4s
