============================== echo of input deck ==============================
echo
start diels-alder-dat

title "parent diels-alder - constrained geometry optimization + saddle search"

# tests constrained optimization, saddle search,
# use of constraints with symmetry

# norbornene = -269.369082   r = 1.56877

geometry autosym  # Equil nonbornene geometry
  C   -0.56970319    -1.24200248     0.66145412
  C   -0.56970319    -1.24200248    -0.66145412
  C    0.30163937    -0.07585222     1.13282212
  C    0.30163937    -0.07585222    -1.13282212
  C    1.36288212    -0.05150460     0.00000000
  C   -0.51211483     1.21947833     0.78501047
  C   -0.51211483     1.21947833    -0.78501047
  H    0.66051824    -0.12617315    -2.14778696
  H    0.66051824    -0.12617315     2.14778696
  H    1.96152178     0.85159285     0.00000000
  H   -1.51147362     1.18303369    -1.19517710
  H   -1.51147362     1.18303369     1.19517710
  H   -1.13480012    -1.87777806    -1.31030500
  H   -1.13480012    -1.87777806     1.31030500
  H    1.99285293    -0.93012745     0.00000000
  H   -0.01020068     2.09823148     1.17132500
  H   -0.01020068     2.09823148    -1.17132500
end

basis
  c library 3-21g
  h library 3-21g
end

scf; print low; thresh 1e-8; end

geometry adjust  # move to guess geometry & apply constraints
  zcoord
    bond 6 3 2.2 r constant
    bond 7 4 2.2 r constant
  end
end

#pause
task scf optimize  # relax with constraints

geometry adjust  # release constraints
  zcoord
    bond 6 3 2.2 r
    bond 7 4 2.2 r
  end
end

task scf saddle  # go for the TS

================================================================================

         Total SCF energy =   -269.211796662985
@ Step       Energy      Delta E   Gmax     Grms     Xrms     Xmax   Walltime
@ ---- ---------------- -------- -------- -------- -------- -------- --------
@    0    -269.21179666  0.0D+00  0.03357  0.00625  0.00000  0.00000      0.8
         Total SCF energy =   -269.236222571865
         Total SCF energy =   -269.247881775309
@    1    -269.24788178 -3.6D-02  0.02408  0.00485  0.15304  0.29794      2.3
         Total SCF energy =   -269.258567051583
         Total SCF energy =   -269.261551886196
@    2    -269.26155189 -1.4D-02  0.01313  0.00261  0.08448  0.20884      3.7
         Total SCF energy =   -269.265813789563
         Total SCF energy =   -269.267675623970
@    3    -269.26767562 -6.1D-03  0.01590  0.00242  0.06923  0.16424      5.0
         Total SCF energy =   -269.269592510954
         Total SCF energy =   -269.269692495544
@    4    -269.26969250 -2.0D-03  0.00268  0.00055  0.03489  0.09006      6.5
         Total SCF energy =   -269.270006091591
         Total SCF energy =   -269.270014375572
@    5    -269.27001438 -3.2D-04  0.00123  0.00028  0.01815  0.05445      7.7
         Total SCF energy =   -269.270099552466
         Total SCF energy =   -269.270112496950
@    6    -269.27011250 -9.8D-05  0.00145  0.00028  0.00664  0.01627      8.8
         Total SCF energy =   -269.270151165197
         Total SCF energy =   -269.270156361899
@    7    -269.27015636 -4.4D-05  0.00040  0.00010  0.00442  0.01493      9.9
         Total SCF energy =   -269.270164465889
         Total SCF energy =   -269.270165469252
@    8    -269.27016547 -9.1D-06  0.00056  0.00007  0.00200  0.00459     10.9
         Total SCF energy =   -269.270167933129
         Total SCF energy =   -269.270168187173
@    9    -269.27016819 -2.7D-06  0.00033  0.00005  0.00124  0.00349     12.1
         Total SCF energy =   -269.270169427464
         Total SCF energy =   -269.270169908376
@   10    -269.27016991 -1.7D-06  0.00011  0.00003  0.00118  0.00339     13.2
         Total SCF energy =   -269.270170400870
         Total SCF energy =   -269.270170537494
@   11    -269.27017054 -6.3D-07  0.00006  0.00001  0.00071  0.00225     14.3
         Total SCF energy =   -269.270170644709
         Total SCF energy =   -269.270170670903
@   12    -269.27017067 -1.3D-07  0.00003  0.00001  0.00027  0.00090     15.3
@   12    -269.27017067 -1.3D-07  0.00003  0.00001  0.00027  0.00090     15.3
         Total SCF energy =   -269.270170670919
@ Step       Energy      Delta E   Gmax     Grms     Xrms     Xmax   Walltime
@ ---- ---------------- -------- -------- -------- -------- -------- --------
@    0    -269.27017067  0.0D+00  0.00130  0.00017  0.00000  0.00000     16.3
         Total SCF energy =   -269.270167294571
@    1    -269.27016729  3.4D-06  0.00129  0.00017  0.00035  0.00080     17.0
         Total SCF energy =   -269.269976528511
@    2    -269.26997653  1.9D-04  0.00334  0.00045  0.00994  0.02924     17.7
         Total SCF energy =   -269.269430320412
@    3    -269.26943032  5.5D-04  0.01179  0.00157  0.01621  0.04138     18.4
         Total SCF energy =   -269.269815517079
@    4    -269.26981552 -3.9D-04  0.01020  0.00121  0.01756  0.03455     19.2
         Total SCF energy =   -269.269270157069
@    5    -269.26927016  5.5D-04  0.00849  0.00141  0.02341  0.04731     19.9
         Total SCF energy =   -269.269829258270
@    6    -269.26982926 -5.6D-04  0.00182  0.00049  0.02832  0.07171     20.8
         Total SCF energy =   -269.269671816575
@    7    -269.26967182  1.6D-04  0.00466  0.00079  0.03476  0.08392     21.5
         Total SCF energy =   -269.268929939836
@    8    -269.26892994  7.4D-04  0.00858  0.00162  0.02766  0.05869     22.3
         Total SCF energy =   -269.269863585151
@    9    -269.26986359 -9.3D-04  0.00335  0.00073  0.03308  0.06331     23.1
         Total SCF energy =   -269.269905898810
@   10    -269.26990590 -4.2D-05  0.00309  0.00059  0.02220  0.06333     23.9
         Total SCF energy =   -269.270101838736
@   11    -269.27010184 -2.0D-04  0.00257  0.00046  0.02034  0.05895     24.6
         Total SCF energy =   -269.270020800513
@   12    -269.27002080  8.1D-05  0.00091  0.00024  0.01681  0.04968     25.5
         Total SCF energy =   -269.270135883953
@   13    -269.27013588 -1.2D-04  0.00119  0.00019  0.01461  0.04394     26.3
         Total SCF energy =   -269.270074127106
@   14    -269.27007413  6.2D-05  0.00132  0.00029  0.01503  0.03654     27.0
         Total SCF energy =   -269.270127579987
@   15    -269.27012758 -5.3D-05  0.00075  0.00014  0.01218  0.03591     27.7
         Total SCF energy =   -269.270152506138
@   16    -269.27015251 -2.5D-05  0.00026  0.00006  0.00985  0.03109     28.4
         Total SCF energy =   -269.270158569991
@   17    -269.27015857 -6.1D-06  0.00011  0.00002  0.00357  0.01022     29.0
         Total SCF energy =   -269.270158722665
@   18    -269.27015872 -1.5D-07  0.00008  0.00001  0.00060  0.00187     29.7
         Total SCF energy =   -269.270158803026
@   19    -269.27015880 -8.0D-08  0.00001  0.00000  0.00024  0.00075     30.2
@   19    -269.27015880 -8.0D-08  0.00001  0.00000  0.00024  0.00075     30.2

 Output coordinates in angstroms (scale by  1.889725989 to convert to a.u.)

  No.       Tag          Charge          X              Y              Z
 ---- ---------------- ---------- -------------- -------------- --------------
    1 C                    6.0000    -0.75249199     1.15805513     0.70032164
    2 C                    6.0000    -0.75249199     1.15805513    -0.70032164
    3 C                    6.0000     0.34869799     0.45428140     1.15705685
    4 C                    6.0000     0.34869799     0.45428140    -1.15705685
    5 C                    6.0000     1.32924037     0.37641698     0.00000000
    6 C                    6.0000    -0.31566654    -1.59452553     0.68600774
    7 C                    6.0000    -0.31566654    -1.59452553    -0.68600774
    8 H                    1.0000     0.64691389     0.38242437    -2.18226283
    9 H                    1.0000     0.64691389     0.38242437     2.18226283
   10 H                    1.0000     1.99130903    -0.47258015     0.00000000
   11 H                    1.0000    -1.23606197    -1.53621376    -1.22974955
   12 H                    1.0000    -1.23606197    -1.53621376     1.22974955
   13 H                    1.0000    -1.54502489     1.52898970    -1.31539064
   14 H                    1.0000    -1.54502489     1.52898970     1.31539064
   15 H                    1.0000     1.91765818     1.29508521     0.00000000
   16 H                    1.0000     0.50663758    -2.02414669     1.22622437
   17 H                    1.0000     0.50663758    -2.02414669    -1.22622437

 Total times  cpu:       28.6s     wall:       30.2s
