============================== echo of input deck ==============================
echo
start h2o

basis
  O library 6-31g*
  H library 6-31g*
end

geometry noautoz noautosym nocenter units au
 O                     0.00000000     0.00000000     0.00000000
 H                     0.23701217     0.50006465    -0.66134565
 H                     0.08518191    -0.91769081    -0.30894068
end
driver
clear
maxiter 40
end

####################################
#      TESTING HARM BONDS          #
####################################

#one spring bond
constraints
  spring bond 1 3 5.0 1.30
  fix atom 1:2
end

task dft optimize

constraints
clear
end

#two spring bonds
constraints
  spring bond 1 3 5.0 1.30
  spring bond 1 2 5.0 1.70
  fix atom 1
end
dft;print low;end
task dft optimize

constraints
clear
end

#same thing but without clearing constraints in between
geometry noautoz noautosym nocenter units au
 O                     0.00000000     0.00000000     0.00000000
 H                     0.23701217     0.50006465    -0.66134565
 H                     0.08518191    -0.91769081    -0.30894068
end

constraints
  spring bond 1 3 5.0 1.30
  fix atom 1:2
end
task dft optimize

constraints
  spring bond 1 2 5.0 1.70
  unfix atom 2
end
task dft optimize

constraints
clear
end

#same thing but using namespaces
geometry noautoz noautosym nocenter units au
 O                     0.00000000     0.00000000     0.00000000
 H                     0.23701217     0.50006465    -0.66134565
 H                     0.08518191    -0.91769081    -0.30894068
end

constraints one
  spring bond 1 3 5.0 1.30
  fix atom 1:2
end

constraints two
  spring bond 1 3 5.0 1.30
  spring bond 1 2 5.0 1.70
  fix atom 1
end

set constraints one
task dft optimize

set constraints two
task dft optimize

================================================================================

         Total DFT energy =      -74.004244573219
@ Step       Energy      Delta E   Gmax     Grms     Xrms     Xmax   Walltime
@ ---- ---------------- -------- -------- -------- -------- -------- --------
@    0     -73.46644727  0.0D+00  5.96333  2.09625  0.00000  0.00000      0.2
         Total DFT energy =      -74.475933748260
         Total DFT energy =      -74.605972078373
@    1     -74.54257396 -1.1D+00  0.43373  0.20436  0.19020  0.48597      0.5
         Total DFT energy =      -74.576960705131
         Total DFT energy =      -74.582750055119
@    2     -74.57254821 -3.0D-02  0.22928  0.07826  0.08031  0.21388      0.8
         Total DFT energy =      -74.595566668912
         Total DFT energy =      -74.645816122074
@    3     -74.54960751  2.3D-02  0.91917  0.32000  0.13611  0.34549      1.1
         Total DFT energy =      -74.619537045158
         Total DFT energy =    -74.619537045158
@    4     -74.57998791 -3.0D-02  0.31823  0.11479  0.05913  0.13132      1.2
         Total DFT energy =      -74.610730621895
         Total DFT energy =      -74.604035693321
@    5     -74.58432686 -4.3D-03  0.03109  0.01119  0.00954  0.02840      1.5
         Total DFT energy =      -74.605623591661
         Total DFT energy =      -74.617955886675
@    6     -74.58613032 -1.8D-03  0.22945  0.07877  0.07879  0.19993      1.7
         Total DFT energy =      -74.605146111976
         Total DFT energy =      -74.608916943569
@    7     -74.58767334 -1.5D-03  0.04504  0.01746  0.02115  0.05816      2.0
         Total DFT energy =      -74.608062090518
         Total DFT energy =      -74.608513738747
@    8     -74.58920074 -1.5D-03  0.01507  0.00578  0.04364  0.10101      2.3
         Total DFT energy =      -74.610096770903
         Total DFT energy =    -74.610096770903
@    9     -74.58937850 -1.8D-04  0.04581  0.01545  0.01862  0.04436      2.4
         Total DFT energy =      -74.608277940282

 Vector   16  Occ=0.000000D+00  E= 1.689526D+00

 Vector   17  Occ=0.000000D+00  E= 2.795874D+00

 Vector   18  Occ=0.000000D+00  E= 3.741111D+00

 Vector   19  Occ=0.000000D+00  E= 4.894025D+00

         Total DFT energy =      -74.607767776762

 Vector    1  Occ=2.000000D+00  E=-1.858814D+01

 Vector    2  Occ=2.000000D+00  E=-1.105793D+00

 Vector    3  Occ=2.000000D+00  E=-6.740133D-01

 Vector    4  Occ=2.000000D+00  E=-3.207069D-01

 Vector    5  Occ=2.000000D+00  E=-2.786218D-01

 Vector    6  Occ=0.000000D+00  E= 1.216205D-01

 Vector    7  Occ=0.000000D+00  E= 2.091631D-01

 Vector    8  Occ=0.000000D+00  E= 7.588126D-01

 Vector    9  Occ=0.000000D+00  E= 8.085402D-01

 Vector   10  Occ=0.000000D+00  E= 9.304125D-01

 Vector   11  Occ=0.000000D+00  E= 1.098568D+00

 Vector   12  Occ=0.000000D+00  E= 1.241598D+00

 Vector   13  Occ=0.000000D+00  E= 1.529887D+00

 Vector   14  Occ=0.000000D+00  E= 1.594895D+00

 Vector   15  Occ=0.000000D+00  E= 1.675371D+00

 Vector   16  Occ=0.000000D+00  E= 1.689747D+00

 Vector   17  Occ=0.000000D+00  E= 2.797233D+00

 Vector   18  Occ=0.000000D+00  E= 3.741536D+00

 Vector   19  Occ=0.000000D+00  E= 4.895219D+00

@   10     -74.58951135 -1.3D-04  0.00322  0.00112  0.00843  0.02491      2.7
         Total DFT energy =      -74.608095437704

 Vector    1  Occ=2.000000D+00  E=-1.858803D+01

 Vector    2  Occ=2.000000D+00  E=-1.104605D+00

 Vector    3  Occ=2.000000D+00  E=-6.755623D-01

 Vector    4  Occ=2.000000D+00  E=-3.197803D-01

 Vector    5  Occ=2.000000D+00  E=-2.785375D-01

 Vector    6  Occ=0.000000D+00  E= 1.219079D-01

 Vector    7  Occ=0.000000D+00  E= 2.087891D-01

 Vector    8  Occ=0.000000D+00  E= 7.595463D-01

 Vector    9  Occ=0.000000D+00  E= 8.085392D-01

 Vector   10  Occ=0.000000D+00  E= 9.322235D-01

 Vector   11  Occ=0.000000D+00  E= 1.094696D+00

 Vector   12  Occ=0.000000D+00  E= 1.242541D+00

 Vector   13  Occ=0.000000D+00  E= 1.529761D+00

 Vector   14  Occ=0.000000D+00  E= 1.594089D+00

 Vector   15  Occ=0.000000D+00  E= 1.676719D+00

 Vector   16  Occ=0.000000D+00  E= 1.690501D+00

 Vector   17  Occ=0.000000D+00  E= 2.796399D+00

 Vector   18  Occ=0.000000D+00  E= 3.742316D+00

 Vector   19  Occ=0.000000D+00  E= 4.898475D+00

         Total DFT energy =    -74.608095437704
@   11     -74.58952087 -9.5D-06  0.00407  0.00136  0.00548  0.01418      2.8
         Total DFT energy =      -74.607924952245

 Vector    1  Occ=2.000000D+00  E=-1.858796D+01

 Vector    2  Occ=2.000000D+00  E=-1.104571D+00

 Vector    3  Occ=2.000000D+00  E=-6.756638D-01

 Vector    4  Occ=2.000000D+00  E=-3.197335D-01

 Vector    5  Occ=2.000000D+00  E=-2.785247D-01

 Vector    6  Occ=0.000000D+00  E= 1.219422D-01

 Vector    7  Occ=0.000000D+00  E= 2.087931D-01

 Vector    8  Occ=0.000000D+00  E= 7.595879D-01

 Vector    9  Occ=0.000000D+00  E= 8.085535D-01

 Vector   10  Occ=0.000000D+00  E= 9.323334D-01

 Vector   11  Occ=0.000000D+00  E= 1.094719D+00

 Vector   12  Occ=0.000000D+00  E= 1.242672D+00

 Vector   13  Occ=0.000000D+00  E= 1.529752D+00

 Vector   14  Occ=0.000000D+00  E= 1.594052D+00

 Vector   15  Occ=0.000000D+00  E= 1.676777D+00

 Vector   16  Occ=0.000000D+00  E= 1.690533D+00

 Vector   17  Occ=0.000000D+00  E= 2.796859D+00

 Vector   18  Occ=0.000000D+00  E= 3.742408D+00

 Vector   19  Occ=0.000000D+00  E= 4.898662D+00

         Total DFT energy =    -74.607924952245
@   12     -74.58952155 -6.8D-07  0.00051  0.00017  0.00028  0.00077      2.9
         Total DFT energy =      -74.607899962943

                       DFT Final Molecular Orbital Analysis
                       ------------------------------------

 Vector    1  Occ=2.000000D+00  E=-1.858796D+01

 Vector    2  Occ=2.000000D+00  E=-1.104536D+00

 Vector    3  Occ=2.000000D+00  E=-6.757413D-01

 Vector    4  Occ=2.000000D+00  E=-3.197062D-01

 Vector    5  Occ=2.000000D+00  E=-2.785293D-01

 Vector    6  Occ=0.000000D+00  E= 1.219552D-01

 Vector    7  Occ=0.000000D+00  E= 2.087811D-01

 Vector    8  Occ=0.000000D+00  E= 7.596118D-01

 Vector    9  Occ=0.000000D+00  E= 8.085487D-01

 Vector   10  Occ=0.000000D+00  E= 9.324065D-01

 Vector   11  Occ=0.000000D+00  E= 1.094600D+00

 Vector   12  Occ=0.000000D+00  E= 1.242722D+00

 Vector   13  Occ=0.000000D+00  E= 1.529741D+00

 Vector   14  Occ=0.000000D+00  E= 1.594015D+00

 Vector   15  Occ=0.000000D+00  E= 1.676823D+00

 Vector   16  Occ=0.000000D+00  E= 1.690556D+00

 Vector   17  Occ=0.000000D+00  E= 2.796920D+00

 Vector   18  Occ=0.000000D+00  E= 3.742441D+00

 Vector   19  Occ=0.000000D+00  E= 4.898792D+00

     Multipole analysis of the density
     ---------------------------------

     L   x y z        total         alpha         beta         nuclear
     -   - - -        -----         -----         ----         -------
     0   0 0 0     -0.000000     -5.000000     -5.000000     10.000000

     1   1 0 0      0.116921     -0.034290     -0.034290      0.185501
     1   0 1 0     -0.381477      0.237640      0.237640     -0.856758
     1   0 0 1     -0.442713      0.153153      0.153153     -0.749020

     2   2 0 0     -4.629418     -2.344123     -2.344123      0.058828
     2   1 1 0      0.166231     -0.011091     -0.011091      0.188413
     2   1 0 1     -0.171484     -0.009627     -0.009627     -0.152231
     2   0 2 0     -3.256802     -2.673917     -2.673917      2.091031
     2   0 1 1     -0.262590     -0.025416     -0.025416     -0.211758

         Total DFT energy =    -74.607899962943
@   13     -74.58952157 -1.8D-08  0.00001  0.00000  0.00021  0.00059      3.1
@   13     -74.58952157 -1.8D-08  0.00001  0.00000  0.00021  0.00059      3.1
         Total DFT energy =      -74.607899965866
@ Step       Energy      Delta E   Gmax     Grms     Xrms     Xmax   Walltime
@ ---- ---------------- -------- -------- -------- -------- -------- --------
@    0     -71.08108810  0.0D+00  9.98579  4.34018  0.00000  0.00000      3.2
         Total DFT energy =      -75.622364530094
         Total DFT energy =      -75.694618435469
@    1     -75.52751432 -4.4D+00  1.39587  0.66701  0.22994  0.39827      3.5
         Total DFT energy =      -75.747768630594
         Total DFT energy =    -75.747768630594
@    2     -75.70242497 -1.7D-01  0.37229  0.13138  0.14248  0.30000      3.6
         Total DFT energy =      -75.708685703477
         Total DFT energy =      -75.726124797824
@    3     -75.70699988 -4.6D-03  0.07614  0.04406  0.04746  0.13741      3.9
         Total DFT energy =      -75.726778782355
         Total DFT energy =      -75.726554507735
@    4     -75.70807599 -1.1D-03  0.03263  0.01558  0.01468  0.02473      4.2
         Total DFT energy =      -75.729389956239
         Total DFT energy =      -75.731920124842
@    5     -75.70847271 -4.0D-04  0.05953  0.02062  0.02232  0.04989      4.5
         Total DFT energy =      -75.730057463543
         Total DFT energy =      -75.729185978323
@    6     -75.70861740 -1.4D-04  0.00407  0.00200  0.00332  0.00822      4.7
         Total DFT energy =      -75.729301529546
         Total DFT energy =      -75.729448883830
@    7     -75.70868506 -6.8D-05  0.00520  0.00232  0.01179  0.02664      5.0
         Total DFT energy =      -75.729146981158
         Total DFT energy =    -75.729146981158
@    8     -75.70868710 -2.0D-06  0.00005  0.00003  0.00042  0.00086      5.1
@    8     -75.70868710 -2.0D-06  0.00005  0.00003  0.00042  0.00086      5.1
         Total DFT energy =      -74.004244571235
@ Step       Energy      Delta E   Gmax     Grms     Xrms     Xmax   Walltime
@ ---- ---------------- -------- -------- -------- -------- -------- --------
@    0     -73.46644727  0.0D+00  5.96333  2.09626  0.00000  0.00000      5.3
         Total DFT energy =      -74.483539467731
         Total DFT energy =      -74.595593555401
@    1     -74.55909549 -1.1D+00  0.21354  0.09510  0.17290  0.45354      5.5
         Total DFT energy =      -74.575610382248
         Total DFT energy =      -74.578066953756
@    2     -74.57187478 -1.3D-02  0.34213  0.11947  0.07646  0.17979      5.8
         Total DFT energy =      -74.600773072421
         Total DFT energy =      -74.681471871740
@    3     -74.38289475  1.9D-01  2.01253  0.73534  0.22499  0.59966      6.1
         Total DFT energy =      -74.651276812226
         Total DFT energy =      -74.625015520087
@    4     -74.57723762 -1.9D-01  0.40852  0.15173  0.09540  0.22312      6.4
         Total DFT energy =      -74.610827026345
         Total DFT energy =      -74.605959170678
@    5     -74.58674275 -9.5D-03  0.02262  0.00764  0.02877  0.06926      6.6
         Total DFT energy =      -74.606024205721
         Total DFT energy =      -74.608455191668
@    6     -74.58863720 -1.9D-03  0.02102  0.00884  0.04217  0.11835      6.9
         Total DFT energy =      -74.613605863289
         Total DFT energy =      -74.611068736808
@    7     -74.58899993 -3.6D-04  0.06776  0.02360  0.02164  0.06094      7.2
         Total DFT energy =      -74.609843475772
         Total DFT energy =      -74.608766561716
         Total DFT energy =      -75.724743190639
@    3     -75.70378105 -1.4D-02  0.05178  0.02401  0.02025  0.04395      9.0
         Total DFT energy =      -75.747185089213
         Total DFT energy =      -75.726425176413
@    4     -75.70463706 -8.6D-04  0.03550  0.01625  0.01736  0.04812      9.3
         Total DFT energy =      -75.732002589193
         Total DFT energy =      -75.734885036095
@    5     -75.70555161 -9.1D-04  0.16786  0.06129  0.04735  0.13438      9.6
         Total DFT energy =      -75.729274983570
         Total DFT energy =      -75.725977307963
@    6     -75.70731513 -1.8D-03  0.02938  0.01260  0.01521  0.02717      9.8
         Total DFT energy =      -75.729767687642
         Total DFT energy =      -75.733816479745
@    7     -75.70821345 -9.0D-04  0.08226  0.03549  0.05729  0.14525     10.1
         Total DFT energy =      -75.728033788638
         Total DFT energy =      -75.729662814412
@    8     -75.70858324 -3.7D-04  0.01676  0.00965  0.01364  0.03651     10.4
         Total DFT energy =      -75.729396217852
         Total DFT energy =      -75.729285205812
@    9     -75.70867813 -9.5D-05  0.00555  0.00294  0.00906  0.02171     10.6
         Total DFT energy =      -75.729092885893
         Total DFT energy =    -75.729092885893
@   10     -75.70868703 -8.9D-06  0.00120  0.00048  0.00318  0.00584     10.7
         Total DFT energy =      -75.729154235914
         Total DFT energy =    -75.729154235914
@   11     -75.70868712 -9.0D-08  0.00007  0.00003  0.00017  0.00048     10.9
@   11     -75.70868712 -9.0D-08  0.00007  0.00003  0.00017  0.00048     10.9
         Total DFT energy =      -74.004244571112
@ Step       Energy      Delta E   Gmax     Grms     Xrms     Xmax   Walltime
@ ---- ---------------- -------- -------- -------- -------- -------- --------
@    0     -73.46644727  0.0D+00  5.96333  2.09626  0.00000  0.00000     11.0
         Total DFT energy =      -74.516998589617
         Total DFT energy =      -74.594571299556
@    1     -74.56098614 -1.1D+00  0.18082  0.08138  0.17158  0.40131     11.3
         Total DFT energy =      -74.580187739378
         Total DFT energy =      -74.581253081594
@    2     -74.57276279 -1.2D-02  0.27235  0.09429  0.07028  0.20306     11.6
         Total DFT energy =      -74.602677567273
         Total DFT energy =      -74.672212696370
@    3     -74.45359626  1.2D-01  1.67204  0.59984  0.20559  0.53865     11.9
         Total DFT energy =      -74.640845277185
         Total DFT energy =      -74.622514496133
@    4     -74.58190689 -1.3D-01  0.33837  0.12102  0.08400  0.19443     12.1
         Total DFT energy =      -74.612267743121
         Total DFT energy =      -74.606306976224
@    5     -74.58724295 -5.3D-03  0.01789  0.00673  0.01550  0.04201     12.4
         Total DFT energy =      -74.606172094168
         Total DFT energy =      -74.606064904754
@    6     -74.58805598 -8.1D-04  0.01802  0.00729  0.01567  0.04036     12.7
         Total DFT energy =      -74.615435054376
         Total DFT energy =      -74.610364984007
@    7     -74.58907254 -1.0D-03  0.05308  0.01863  0.03407  0.08950     12.9
         Total DFT energy =      -74.610150255286
         Total DFT energy =      -74.610413915681
@    8     -74.58938898 -3.2D-04  0.05167  0.01763  0.02407  0.05807     13.2
         Total DFT energy =      -74.606809724283
         Total DFT energy =      -74.607890528516
@    9     -74.58950143 -1.1D-04  0.00149  0.00059  0.00235  0.00629     13.4
         Total DFT energy =      -74.607969635809
         Total DFT energy =      -74.608057299130
@   10     -74.58952112 -2.0D-05  0.00324  0.00110  0.00809  0.01917     13.7
         Total DFT energy =      -74.607909051850
         Total DFT energy =    -74.607909051850
@   11     -74.58952156 -4.4D-07  0.00018  0.00006  0.00020  0.00056     13.8
@   11     -74.58952156 -4.4D-07  0.00018  0.00006  0.00020  0.00056     13.8
         Total DFT energy =    -74.607909051850
@ Step       Energy      Delta E   Gmax     Grms     Xrms     Xmax   Walltime
@ ---- ---------------- -------- -------- -------- -------- -------- --------
@    0     -71.08108810  0.0D+00 10.14234  4.41222  0.00000  0.00000     13.8
         Total DFT energy =      -75.651193923658
         Total DFT energy =      -75.725138733619
@    1     -75.41473793 -4.3D+00  1.61926  0.85060  0.25554  0.38217     14.1
         Total DFT energy =      -75.690372606522
         Total DFT energy =      -75.696736354155
@    2     -75.69250318 -2.8D-01  0.49220  0.18382  0.13176  0.26793     14.4
         Total DFT energy =      -75.741355358679
         Total DFT energy =      -75.708751413817
@    3     -75.69985960 -7.4D-03  0.28172  0.09573  0.03229  0.06584     14.7
         Total DFT energy =      -75.722608482622
         Total DFT energy =      -75.727802328906
@    4     -75.70455870 -4.7D-03  0.06541  0.03575  0.02769  0.07115     14.9
         Total DFT energy =      -75.734128453905
         Total DFT energy =    -75.734128453905
@    5     -75.70614770 -1.6D-03  0.14481  0.06355  0.04688  0.10301     15.1
         Total DFT energy =      -75.731117343072
         Total DFT energy =      -75.730707103374
@    6     -75.70818099 -2.0D-03  0.03443  0.02010  0.02021  0.03794     15.3
         Total DFT energy =      -75.730815148216
         Total DFT energy =      -75.731296254031
@    7     -75.70860054 -4.2D-04  0.04353  0.01484  0.02468  0.05708     15.6
         Total DFT energy =      -75.727467564952
         Total DFT energy =      -75.729226341784
@    8     -75.70866827 -6.8D-05  0.00701  0.00377  0.00194  0.00473     15.8
         Total DFT energy =      -75.729174090831
         Total DFT energy =      -75.729170206972
@    9     -75.70868679 -1.9D-05  0.00128  0.00069  0.00441  0.00977     16.1
         Total DFT energy =      -75.729157983948
         Total DFT energy =    -75.729157983948
@   10     -75.70868712 -3.3D-07  0.00013  0.00005  0.00056  0.00132     16.2
@   10     -75.70868712 -3.3D-07  0.00013  0.00005  0.00056  0.00132     16.2

 Output coordinates in a.u. (scale by  1.000000000 to convert to a.u.)

  No.       Tag          Charge          X              Y              Z
 ---- ---------------- ---------- -------------- -------------- --------------
    1 O                    8.0000     0.00000000     0.00000000     0.00000000
    2 H                    1.0000     0.97940513     0.87879252    -1.08856802
    3 H                    1.0000     0.30174810    -1.32883334    -0.04810748

 Total times  cpu:       12.6s     wall:       16.2s
