============================== echo of input deck ==============================
echo
start h2o

basis
  O library 6-31g*
  H library 6-31g*
end

geometry noautoz noautosym nocenter units au
 O                     0.00000000     0.00000000     0.00000000
 H                     0.23701217     0.50006465    -0.66134565
 H                     0.08518191    -0.91769081    -0.30894068
end
driver
clear
maxiter 40
end

####################################
#      TESTING HARM BONDS          #
####################################

#one spring bond
constraints
  spring bond 1 3 5.0 1.30
  fix atom 1:2
end

task dft optimize

constraints
clear
end

#two spring bonds
constraints
  spring bond 1 3 5.0 1.30
  spring bond 1 2 5.0 1.70
  fix atom 1
end
dft;print low;end
task dft optimize

constraints
clear
end

#same thing but without clearing constraints in between
geometry noautoz noautosym nocenter units au
 O                     0.00000000     0.00000000     0.00000000
 H                     0.23701217     0.50006465    -0.66134565
 H                     0.08518191    -0.91769081    -0.30894068
end

constraints
  spring bond 1 3 5.0 1.30
  fix atom 1:2
end
task dft optimize

constraints
  spring bond 1 2 5.0 1.70
  unfix atom 2
end
task dft optimize

constraints
clear
end

#same thing but using namespaces
geometry noautoz noautosym nocenter units au
 O                     0.00000000     0.00000000     0.00000000
 H                     0.23701217     0.50006465    -0.66134565
 H                     0.08518191    -0.91769081    -0.30894068
end

constraints one
  spring bond 1 3 5.0 1.30
  fix atom 1:2
end

constraints two
  spring bond 1 3 5.0 1.30
  spring bond 1 2 5.0 1.70
  fix atom 1
end

set constraints one
task dft optimize

set constraints two
task dft optimize

================================================================================

         Total DFT energy =      -74.004244573220
@ Step       Energy      Delta E   Gmax     Grms     Xrms     Xmax   Walltime
@ ---- ---------------- -------- -------- -------- -------- -------- --------
@    0     -73.46644727  0.0D+00  5.96333  2.09625  0.00000  0.00000      1.0
         Total DFT energy =      -74.475933748260
         Total DFT energy =      -74.605972078372
@    1     -74.54257396 -1.1D+00  0.43373  0.20436  0.19020  0.48597      2.3
         Total DFT energy =      -74.576960708735
         Total DFT energy =      -74.582750054197
@    2     -74.57254821 -3.0D-02  0.22928  0.07826  0.08031  0.21388      3.5
         Total DFT energy =      -74.595566669337
         Total DFT energy =      -74.645816125315
@    3     -74.54960750  2.3D-02  0.91917  0.32000  0.13611  0.34549      4.7
         Total DFT energy =      -74.619537047759
         Total DFT energy =    -74.619537047759
@    4     -74.57998791 -3.0D-02  0.31823  0.11479  0.05913  0.13132      5.5
         Total DFT energy =      -74.610730621746
         Total DFT energy =      -74.604035694717
@    5     -74.58432686 -4.3D-03  0.03109  0.01119  0.00954  0.02840      6.6
         Total DFT energy =      -74.605623591366
         Total DFT energy =      -74.617955879761
@    6     -74.58613032 -1.8D-03  0.22945  0.07877  0.07879  0.19993      7.8
         Total DFT energy =      -74.605146113937
         Total DFT energy =      -74.608916945460
@    7     -74.58767334 -1.5D-03  0.04504  0.01746  0.02115  0.05816      8.9
         Total DFT energy =      -74.608062093614
         Total DFT energy =      -74.608513742844
@    8     -74.58920074 -1.5D-03  0.01507  0.00578  0.04364  0.10101     10.1
         Total DFT energy =      -74.610096765808
         Total DFT energy =    -74.610096765808
@    9     -74.58937850 -1.8D-04  0.04581  0.01545  0.01862  0.04436     10.9
         Total DFT energy =      -74.608277936116

 Vector   16  Occ=0.000000D+00  E= 1.689526D+00

 Vector   17  Occ=0.000000D+00  E= 2.795874D+00

 Vector   18  Occ=0.000000D+00  E= 3.741111D+00

 Vector   19  Occ=0.000000D+00  E= 4.894025D+00

         Total DFT energy =      -74.607767777547

 Vector    1  Occ=2.000000D+00  E=-1.858814D+01

 Vector    2  Occ=2.000000D+00  E=-1.105793D+00

 Vector    3  Occ=2.000000D+00  E=-6.740133D-01

 Vector    4  Occ=2.000000D+00  E=-3.207069D-01

 Vector    5  Occ=2.000000D+00  E=-2.786218D-01

 Vector    6  Occ=0.000000D+00  E= 1.216205D-01

 Vector    7  Occ=0.000000D+00  E= 2.091631D-01

 Vector    8  Occ=0.000000D+00  E= 7.588126D-01

 Vector    9  Occ=0.000000D+00  E= 8.085402D-01

 Vector   10  Occ=0.000000D+00  E= 9.304125D-01

 Vector   11  Occ=0.000000D+00  E= 1.098568D+00

 Vector   12  Occ=0.000000D+00  E= 1.241598D+00

 Vector   13  Occ=0.000000D+00  E= 1.529887D+00

 Vector   14  Occ=0.000000D+00  E= 1.594895D+00

 Vector   15  Occ=0.000000D+00  E= 1.675371D+00

 Vector   16  Occ=0.000000D+00  E= 1.689747D+00

 Vector   17  Occ=0.000000D+00  E= 2.797233D+00

 Vector   18  Occ=0.000000D+00  E= 3.741536D+00

 Vector   19  Occ=0.000000D+00  E= 4.895219D+00

@   10     -74.58951135 -1.3D-04  0.00322  0.00112  0.00843  0.02491     11.9
         Total DFT energy =      -74.608095437703

 Vector    1  Occ=2.000000D+00  E=-1.858803D+01

 Vector    2  Occ=2.000000D+00  E=-1.104605D+00

 Vector    3  Occ=2.000000D+00  E=-6.755623D-01

 Vector    4  Occ=2.000000D+00  E=-3.197803D-01

 Vector    5  Occ=2.000000D+00  E=-2.785375D-01

 Vector    6  Occ=0.000000D+00  E= 1.219079D-01

 Vector    7  Occ=0.000000D+00  E= 2.087891D-01

 Vector    8  Occ=0.000000D+00  E= 7.595463D-01

 Vector    9  Occ=0.000000D+00  E= 8.085392D-01

 Vector   10  Occ=0.000000D+00  E= 9.322235D-01

 Vector   11  Occ=0.000000D+00  E= 1.094696D+00

 Vector   12  Occ=0.000000D+00  E= 1.242541D+00

 Vector   13  Occ=0.000000D+00  E= 1.529761D+00

 Vector   14  Occ=0.000000D+00  E= 1.594089D+00

 Vector   15  Occ=0.000000D+00  E= 1.676719D+00

 Vector   16  Occ=0.000000D+00  E= 1.690501D+00

 Vector   17  Occ=0.000000D+00  E= 2.796399D+00

 Vector   18  Occ=0.000000D+00  E= 3.742316D+00

 Vector   19  Occ=0.000000D+00  E= 4.898475D+00

         Total DFT energy =    -74.608095437703
@   11     -74.58952087 -9.5D-06  0.00407  0.00136  0.00548  0.01418     12.7
         Total DFT energy =      -74.607924952078

 Vector    1  Occ=2.000000D+00  E=-1.858796D+01

 Vector    2  Occ=2.000000D+00  E=-1.104571D+00

 Vector    3  Occ=2.000000D+00  E=-6.756638D-01

 Vector    4  Occ=2.000000D+00  E=-3.197335D-01

 Vector    5  Occ=2.000000D+00  E=-2.785247D-01

 Vector    6  Occ=0.000000D+00  E= 1.219422D-01

 Vector    7  Occ=0.000000D+00  E= 2.087931D-01

 Vector    8  Occ=0.000000D+00  E= 7.595879D-01

 Vector    9  Occ=0.000000D+00  E= 8.085535D-01

 Vector   10  Occ=0.000000D+00  E= 9.323334D-01

 Vector   11  Occ=0.000000D+00  E= 1.094719D+00

 Vector   12  Occ=0.000000D+00  E= 1.242672D+00

 Vector   13  Occ=0.000000D+00  E= 1.529752D+00

 Vector   14  Occ=0.000000D+00  E= 1.594052D+00

 Vector   15  Occ=0.000000D+00  E= 1.676777D+00

 Vector   16  Occ=0.000000D+00  E= 1.690533D+00

 Vector   17  Occ=0.000000D+00  E= 2.796859D+00

 Vector   18  Occ=0.000000D+00  E= 3.742408D+00

 Vector   19  Occ=0.000000D+00  E= 4.898662D+00

         Total DFT energy =    -74.607924952078
@   12     -74.58952155 -6.8D-07  0.00051  0.00017  0.00028  0.00077     13.3
         Total DFT energy =      -74.607899962916

                       DFT Final Molecular Orbital Analysis
                       ------------------------------------

 Vector    1  Occ=2.000000D+00  E=-1.858796D+01

 Vector    2  Occ=2.000000D+00  E=-1.104536D+00

 Vector    3  Occ=2.000000D+00  E=-6.757413D-01

 Vector    4  Occ=2.000000D+00  E=-3.197062D-01

 Vector    5  Occ=2.000000D+00  E=-2.785293D-01

 Vector    6  Occ=0.000000D+00  E= 1.219552D-01

 Vector    7  Occ=0.000000D+00  E= 2.087811D-01

 Vector    8  Occ=0.000000D+00  E= 7.596118D-01

 Vector    9  Occ=0.000000D+00  E= 8.085487D-01

 Vector   10  Occ=0.000000D+00  E= 9.324065D-01

 Vector   11  Occ=0.000000D+00  E= 1.094600D+00

 Vector   12  Occ=0.000000D+00  E= 1.242722D+00

 Vector   13  Occ=0.000000D+00  E= 1.529741D+00

 Vector   14  Occ=0.000000D+00  E= 1.594015D+00

 Vector   15  Occ=0.000000D+00  E= 1.676823D+00

 Vector   16  Occ=0.000000D+00  E= 1.690556D+00

 Vector   17  Occ=0.000000D+00  E= 2.796920D+00

 Vector   18  Occ=0.000000D+00  E= 3.742441D+00

 Vector   19  Occ=0.000000D+00  E= 4.898792D+00

     Multipole analysis of the density
     ---------------------------------

     L   x y z        total         alpha         beta         nuclear
     -   - - -        -----         -----         ----         -------
     0   0 0 0     -0.000000     -5.000000     -5.000000     10.000000

     1   1 0 0      0.116921     -0.034290     -0.034290      0.185501
     1   0 1 0     -0.381477      0.237640      0.237640     -0.856758
     1   0 0 1     -0.442713      0.153153      0.153153     -0.749020

     2   2 0 0     -4.629418     -2.344123     -2.344123      0.058828
     2   1 1 0      0.166231     -0.011091     -0.011091      0.188413
     2   1 0 1     -0.171484     -0.009627     -0.009627     -0.152231
     2   0 2 0     -3.256802     -2.673917     -2.673917      2.091031
     2   0 1 1     -0.262590     -0.025416     -0.025416     -0.211758

         Total DFT energy =    -74.607899962916
@   13     -74.58952157 -1.8D-08  0.00001  0.00000  0.00021  0.00059     13.9
@   13     -74.58952157 -1.8D-08  0.00001  0.00000  0.00021  0.00059     13.9
         Total DFT energy =      -74.607899965839
@ Step       Energy      Delta E   Gmax     Grms     Xrms     Xmax   Walltime
@ ---- ---------------- -------- -------- -------- -------- -------- --------
@    0     -71.08108810  0.0D+00  9.98579  4.34018  0.00000  0.00000     14.5
         Total DFT energy =      -75.622364530393
         Total DFT energy =      -75.694618435816
@    1     -75.52751432 -4.4D+00  1.39587  0.66701  0.22994  0.39827     15.7
         Total DFT energy =      -75.747768638097
         Total DFT energy =    -75.747768638097
@    2     -75.70242496 -1.7D-01  0.37229  0.13138  0.14248  0.30000     16.5
         Total DFT energy =      -75.708685708233
         Total DFT energy =      -75.726124800412
@    3     -75.70699988 -4.6D-03  0.07614  0.04406  0.04746  0.13741     17.8
         Total DFT energy =      -75.726778782303
         Total DFT energy =      -75.726554508688
@    4     -75.70807599 -1.1D-03  0.03263  0.01558  0.01468  0.02473     19.0
         Total DFT energy =      -75.729389954979
         Total DFT energy =      -75.731920115151
@    5     -75.70847271 -4.0D-04  0.05953  0.02062  0.02232  0.04989     20.1
         Total DFT energy =      -75.730057467656
         Total DFT energy =      -75.729185970880
@    6     -75.70861740 -1.4D-04  0.00407  0.00200  0.00332  0.00822     21.1
         Total DFT energy =      -75.729301530023
         Total DFT energy =      -75.729448886930
@    7     -75.70868506 -6.8D-05  0.00520  0.00232  0.01179  0.02664     22.3
         Total DFT energy =      -75.729146980906
         Total DFT energy =    -75.729146980906
@    8     -75.70868710 -2.0D-06  0.00005  0.00003  0.00042  0.00086     22.9
@    8     -75.70868710 -2.0D-06  0.00005  0.00003  0.00042  0.00086     22.9
         Total DFT energy =      -74.004244571236
@ Step       Energy      Delta E   Gmax     Grms     Xrms     Xmax   Walltime
@ ---- ---------------- -------- -------- -------- -------- -------- --------
@    0     -73.46644727  0.0D+00  5.96333  2.09626  0.00000  0.00000     23.7
         Total DFT energy =      -74.483539476351
         Total DFT energy =      -74.595593558062
@    1     -74.55909549 -1.1D+00  0.21354  0.09510  0.17290  0.45354     25.0
         Total DFT energy =      -74.575610378742
         Total DFT energy =      -74.578066950117
@    2     -74.57187478 -1.3D-02  0.34213  0.11947  0.07646  0.17979     26.2
         Total DFT energy =      -74.600773045301
         Total DFT energy =      -74.681472010334
@    3     -74.38289348  1.9D-01  2.01254  0.73534  0.22499  0.59966     27.4
         Total DFT energy =      -74.651276977560
         Total DFT energy =      -74.625015535203
@    4     -74.57723763 -1.9D-01  0.40852  0.15173  0.09540  0.22312     28.5
         Total DFT energy =      -74.610827015305
         Total DFT energy =      -74.605959170607
@    5     -74.58674275 -9.5D-03  0.02262  0.00764  0.02877  0.06926     29.7
         Total DFT energy =      -74.606024207352
         Total DFT energy =      -74.608455187681
@    6     -74.58863720 -1.9D-03  0.02102  0.00884  0.04217  0.11835     30.8
         Total DFT energy =      -74.613605868790
         Total DFT energy =      -74.611068733397
@    7     -74.58899993 -3.6D-04  0.06776  0.02360  0.02164  0.06094     32.0
         Total DFT energy =      -74.609843475248
         Total DFT energy =      -74.608766566208
         Total DFT energy =      -75.724743087269
@    3     -75.70378100 -1.4D-02  0.05178  0.02401  0.02025  0.04395     40.0
         Total DFT energy =      -75.747184853778
         Total DFT energy =      -75.726425093539
@    4     -75.70463704 -8.6D-04  0.03550  0.01625  0.01736  0.04813     41.2
         Total DFT energy =      -75.732002590094
         Total DFT energy =      -75.734884949424
@    5     -75.70555160 -9.1D-04  0.16786  0.06129  0.04735  0.13438     42.4
         Total DFT energy =      -75.729275033261
         Total DFT energy =      -75.725977266277
@    6     -75.70731512 -1.8D-03  0.02939  0.01260  0.01521  0.02717     43.6
         Total DFT energy =      -75.729767781002
         Total DFT energy =      -75.733816534467
@    7     -75.70821345 -9.0D-04  0.08226  0.03549  0.05729  0.14525     44.7
         Total DFT energy =      -75.728033806077
         Total DFT energy =      -75.729662828657
@    8     -75.70858324 -3.7D-04  0.01676  0.00965  0.01364  0.03651     45.9
         Total DFT energy =      -75.729396214527
         Total DFT energy =      -75.729285197102
@    9     -75.70867813 -9.5D-05  0.00555  0.00294  0.00906  0.02172     47.0
         Total DFT energy =      -75.729092889879
         Total DFT energy =    -75.729092889879
@   10     -75.70868703 -8.9D-06  0.00120  0.00048  0.00318  0.00584     47.7
         Total DFT energy =      -75.729154236774
         Total DFT energy =    -75.729154236774
@   11     -75.70868712 -9.0D-08  0.00007  0.00003  0.00017  0.00048     48.2
@   11     -75.70868712 -9.0D-08  0.00007  0.00003  0.00017  0.00048     48.2
         Total DFT energy =      -74.004244571114
@ Step       Energy      Delta E   Gmax     Grms     Xrms     Xmax   Walltime
@ ---- ---------------- -------- -------- -------- -------- -------- --------
@    0     -73.46644727  0.0D+00  5.96333  2.09626  0.00000  0.00000     49.1
         Total DFT energy =      -74.516998192176
         Total DFT energy =      -74.594571456281
@    1     -74.56098598 -1.1D+00  0.18082  0.08138  0.17158  0.40131     50.3
         Total DFT energy =      -74.580187742577
         Total DFT energy =      -74.581253103739
@    2     -74.57276281 -1.2D-02  0.27235  0.09429  0.07028  0.20306     51.5
         Total DFT energy =      -74.602677521839
         Total DFT energy =      -74.672211444133
@    3     -74.45360381  1.2D-01  1.67200  0.59983  0.20559  0.53864     52.7
         Total DFT energy =      -74.640844104726
         Total DFT energy =      -74.622514102940
@    4     -74.58190694 -1.3D-01  0.33836  0.12102  0.08400  0.19443     53.9
         Total DFT energy =      -74.612267563563
         Total DFT energy =      -74.606306830937
@    5     -74.58724283 -5.3D-03  0.01789  0.00673  0.01550  0.04201     55.0
         Total DFT energy =      -74.606171974351
         Total DFT energy =      -74.606064887614
@    6     -74.58805592 -8.1D-04  0.01802  0.00729  0.01567  0.04036     56.1
         Total DFT energy =      -74.615435625970
         Total DFT energy =      -74.610364955806
@    7     -74.58907250 -1.0D-03  0.05308  0.01863  0.03407  0.08949     57.3
         Total DFT energy =      -74.610150427238
         Total DFT energy =      -74.610414310839
@    8     -74.58938894 -3.2D-04  0.05168  0.01763  0.02407  0.05807     58.3
         Total DFT energy =      -74.606809986192
         Total DFT energy =      -74.607890546019
@    9     -74.58950143 -1.1D-04  0.00149  0.00059  0.00235  0.00630     59.4
         Total DFT energy =      -74.607969646805
         Total DFT energy =      -74.608057201167
@   10     -74.58952112 -2.0D-05  0.00323  0.00110  0.00809  0.01916     60.4
         Total DFT energy =      -74.607909104200
         Total DFT energy =    -74.607909104200
@   11     -74.58952156 -4.4D-07  0.00018  0.00006  0.00020  0.00056     60.9
@   11     -74.58952156 -4.4D-07  0.00018  0.00006  0.00020  0.00056     60.9
         Total DFT energy =    -74.607909104200
@ Step       Energy      Delta E   Gmax     Grms     Xrms     Xmax   Walltime
@ ---- ---------------- -------- -------- -------- -------- -------- --------
@    0     -71.08108810  0.0D+00 10.14234  4.41222  0.00000  0.00000     61.0
         Total DFT energy =      -75.651196803010
         Total DFT energy =      -75.725141354866
@    1     -75.41472683 -4.3D+00  1.61927  0.85062  0.25554  0.38217     62.3
         Total DFT energy =      -75.690369134369
         Total DFT energy =      -75.696734853881
@    2     -75.69250145 -2.8D-01  0.49222  0.18383  0.13176  0.26792     63.5
         Total DFT energy =      -75.741356116459
         Total DFT energy =      -75.708751178466
@    3     -75.69985929 -7.4D-03  0.28172  0.09573  0.03229  0.06584     64.7
         Total DFT energy =      -75.722609006914
         Total DFT energy =      -75.727808868637
@    4     -75.70455962 -4.7D-03  0.06551  0.03579  0.02772  0.07123     65.9
         Total DFT energy =      -75.734127935364
         Total DFT energy =    -75.734127935364
@    5     -75.70614898 -1.6D-03  0.14479  0.06352  0.04685  0.10293     66.7
         Total DFT energy =      -75.731115786009
         Total DFT energy =      -75.730710250135
@    6     -75.70818139 -2.0D-03  0.03448  0.02011  0.02023  0.03800     67.8
         Total DFT energy =      -75.730810647965
         Total DFT energy =      -75.731286046521
@    7     -75.70860116 -4.2D-04  0.04334  0.01478  0.02466  0.05705     68.9
         Total DFT energy =      -75.727470360332
         Total DFT energy =      -75.729224938239
@    8     -75.70866830 -6.7D-05  0.00700  0.00376  0.00193  0.00471     70.0
         Total DFT energy =      -75.729174109490
         Total DFT energy =      -75.729170453489
@    9     -75.70868679 -1.8D-05  0.00128  0.00069  0.00441  0.00977     71.0
         Total DFT energy =      -75.729157974883
         Total DFT energy =    -75.729157974883
@   10     -75.70868712 -3.2D-07  0.00013  0.00005  0.00056  0.00132     71.6
@   10     -75.70868712 -3.2D-07  0.00013  0.00005  0.00056  0.00132     71.6

 Output coordinates in a.u. (scale by  1.000000000 to convert to a.u.)

  No.       Tag          Charge          X              Y              Z
 ---- ---------------- ---------- -------------- -------------- --------------
    1 O                    8.0000     0.00000000     0.00000000     0.00000000
    2 H                    1.0000     0.97940389     0.87881722    -1.08854936
    3 H                    1.0000     0.30175874    -1.32883024    -0.04812568

 Total times  cpu:       39.8s     wall:       71.6s
