============================== echo of input deck ==============================
echo

start h2o_raman_3

title "TDDFT h2o BP86/aug-cc-pVTZ"

geometry
symmetry c1
O     0.00000000     0.00000000     0.12982363
H     0.75933475     0.00000000    -0.46621158
H    -0.75933475     0.00000000    -0.46621158
end

basis  spherical
 O library aug-cc-pVTZ
 H library aug-cc-pVTZ
end

dft
xc becke88 perdew86
convergence energy 1d-8 nolevelshifting
direct
end

hessian
thresh 1d-8
profile
end

property
response  1 8.8559E-2
damping 0.007
end

raman
  normal
end

driver
 clear
end

task dft optimize
task dft raman
================================================================================

         Total DFT energy =      -76.466026030240
@ Step       Energy      Delta E   Gmax     Grms     Xrms     Xmax   Walltime
@ ---- ---------------- -------- -------- -------- -------- -------- --------
@    0     -76.46602603  0.0D+00  0.00588  0.00484  0.00000  0.00000      2.7
         Total DFT energy =      -76.466083234672
         Total DFT energy =      -76.466098788470
@    1     -76.46609879 -7.3D-05  0.00004  0.00003  0.00614  0.01299      6.2
         Total DFT energy =      -76.466098792508
         Total DFT energy =    -76.466098792508
@    2     -76.46609879 -4.0D-09  0.00000  0.00000  0.00003  0.00008      7.6
@    2     -76.46609879 -4.0D-09  0.00000  0.00000  0.00003  0.00008      7.6

 Output coordinates in angstroms (scale by  1.889725989 to convert to a.u.)

  No.       Tag          Charge          X              Y              Z
 ---- ---------------- ---------- -------------- -------------- --------------
    1 O                    8.0000    -0.00000000     0.00000000     0.11976769
    2 H                    1.0000     0.76619295     0.00000000    -0.47710849
    3 H                    1.0000    -0.76619295     0.00000000    -0.47710849

         Total DFT energy =      -76.466093734062
 Zero-Point correction to Energy  =   12.943 kcal/mol  (  0.020627 au)
 Thermal correction to Energy     =   14.722 kcal/mol  (  0.023461 au)
 Thermal correction to Enthalpy   =   15.314 kcal/mol  (  0.024405 au)
 Total Entropy                    =   46.508 cal/mol-K
   - Translational                =   34.593 cal/mol-K (mol. weight =  18.0106)
   - Rotational                   =   11.908 cal/mol-K (symmetry #  =        1)
   - Vibrational                  =    0.008 cal/mol-K
   - Translational                  =    2.979 cal/mol-K
   - Rotational                     =    2.979 cal/mol-K
   - Vibrational                    =    0.054 cal/mol-K
 P.Frequency        0.00        0.00        0.00        0.00        0.00        0.00
 P.Frequency     1593.06     3680.51     3784.84

 Normal Eigenvalue ||           Projected Infra Red Intensities
  Mode   [cm**-1]  || [atomic units] [(debye/angs)**2] [(KM/mol)] [arbitrary]
 ------ ---------- || -------------- ----------------- ---------- -----------
    1        0.000 ||    0.024860           0.574        24.234       5.326
    2        0.000 ||    0.098626           2.275        96.145      21.129
    3        0.000 ||    0.098626           2.275        96.145      21.129
    4        0.000 ||    0.000001           0.000         0.001       0.000
    5        0.000 ||    0.010077           0.232         9.824       2.159
    6        0.000 ||    0.067702           1.562        66.000      14.504
    7     1593.057 ||    0.068757           1.586        67.027      14.730
    8     3680.515 ||    0.001710           0.039         1.667       0.366
    9     3784.842 ||    0.049744           1.148        48.493      10.657
 ----------------------------------------------------------------------------

         Total DFT energy =      -76.466088551710
         Total DFT energy =      -76.466088450258
         Total DFT energy =      -76.466067315851
         Total DFT energy =      -76.466066515310
         Total DFT energy =      -76.466064418882
         Total DFT energy =      -76.466064407963

                       DFT Final Molecular Orbital Analysis
                       ------------------------------------

 Vector    1  Occ=2.000000D+00  E=-1.878176D+01

 Vector   13  Occ=0.000000D+00  E= 1.680169D-01

 Vector   14  Occ=0.000000D+00  E= 1.910772D-01

 Vector   15  Occ=0.000000D+00  E= 2.138611D-01

 Vector   16  Occ=0.000000D+00  E= 2.157210D-01

 Vector   17  Occ=0.000000D+00  E= 3.079961D-01

 Vector   18  Occ=0.000000D+00  E= 3.126837D-01

 Vector   19  Occ=0.000000D+00  E= 3.249218D-01

 Vector   20  Occ=0.000000D+00  E= 4.552495D-01

 Vector   21  Occ=0.000000D+00  E= 4.950408D-01

 Vector   22  Occ=0.000000D+00  E= 5.450735D-01

 Vector   23  Occ=0.000000D+00  E= 5.663563D-01

 Vector   24  Occ=0.000000D+00  E= 5.681965D-01

 Vector   25  Occ=0.000000D+00  E= 6.584231D-01

 Vector   26  Occ=0.000000D+00  E= 6.874684D-01

 Vector   27  Occ=0.000000D+00  E= 7.024499D-01

 Vector   28  Occ=0.000000D+00  E= 7.375550D-01

 Vector   29  Occ=0.000000D+00  E= 7.381095D-01

 Vector   30  Occ=0.000000D+00  E= 7.688592D-01

 Vector   31  Occ=0.000000D+00  E= 7.899266D-01

 Vector   32  Occ=0.000000D+00  E= 7.939100D-01

 Vector   33  Occ=0.000000D+00  E= 8.578940D-01

 Vector   34  Occ=0.000000D+00  E= 8.649800D-01

 Vector   35  Occ=0.000000D+00  E= 8.855435D-01

 Vector   36  Occ=0.000000D+00  E= 9.728066D-01

 Vector   37  Occ=0.000000D+00  E= 1.019431D+00

 Vector   38  Occ=0.000000D+00  E= 1.032001D+00

 Vector   39  Occ=0.000000D+00  E= 1.083841D+00

 Vector   40  Occ=0.000000D+00  E= 1.288317D+00

 Vector   41  Occ=0.000000D+00  E= 1.319734D+00

 Vector   42  Occ=0.000000D+00  E= 1.343557D+00

 Vector   43  Occ=0.000000D+00  E= 1.530403D+00

 Vector   44  Occ=0.000000D+00  E= 1.576315D+00

 Vector   45  Occ=0.000000D+00  E= 1.679113D+00

 Vector   46  Occ=0.000000D+00  E= 1.797452D+00

 Vector   47  Occ=0.000000D+00  E= 1.928064D+00

 Vector   48  Occ=0.000000D+00  E= 1.982256D+00

 Vector   49  Occ=0.000000D+00  E= 2.007428D+00

 Vector   50  Occ=0.000000D+00  E= 2.060975D+00

 Vector   51  Occ=0.000000D+00  E= 2.105690D+00

 Vector   52  Occ=0.000000D+00  E= 2.115832D+00

 Vector   53  Occ=0.000000D+00  E= 2.158921D+00

 Vector   54  Occ=0.000000D+00  E= 2.367750D+00

 Vector   55  Occ=0.000000D+00  E= 2.374400D+00

 Vector   56  Occ=0.000000D+00  E= 2.413288D+00

 Vector   57  Occ=0.000000D+00  E= 2.505247D+00

 Vector   58  Occ=0.000000D+00  E= 2.549432D+00

 Vector   59  Occ=0.000000D+00  E= 3.228627D+00

 Vector   60  Occ=0.000000D+00  E= 3.320211D+00

 Vector   61  Occ=0.000000D+00  E= 3.541489D+00

 Vector   62  Occ=0.000000D+00  E= 3.641240D+00

 Vector   63  Occ=0.000000D+00  E= 3.791812D+00

 Vector   64  Occ=0.000000D+00  E= 3.865209D+00

 Vector   65  Occ=0.000000D+00  E= 3.910364D+00

 Vector   66  Occ=0.000000D+00  E= 3.990296D+00

 Vector   67  Occ=0.000000D+00  E= 4.001665D+00

 Vector   68  Occ=0.000000D+00  E= 4.009732D+00

 Vector   69  Occ=0.000000D+00  E= 4.063594D+00

 Vector   70  Occ=0.000000D+00  E= 4.202462D+00

 Vector   71  Occ=0.000000D+00  E= 4.339328D+00

 Vector   72  Occ=0.000000D+00  E= 4.694552D+00

 Vector   73  Occ=0.000000D+00  E= 4.731069D+00

 Vector   74  Occ=0.000000D+00  E= 4.787664D+00

 Vector   75  Occ=0.000000D+00  E= 4.800952D+00

 Vector   76  Occ=0.000000D+00  E= 4.997508D+00

 Vector   77  Occ=0.000000D+00  E= 5.170610D+00

 Vector   78  Occ=0.000000D+00  E= 5.608448D+00

 Vector   79  Occ=0.000000D+00  E= 5.950965D+00

 Vector   80  Occ=0.000000D+00  E= 6.129213D+00

 Vector   81  Occ=0.000000D+00  E= 6.299941D+00

 Vector   82  Occ=0.000000D+00  E= 6.529593D+00

 Vector   83  Occ=0.000000D+00  E= 6.596513D+00

 Vector   84  Occ=0.000000D+00  E= 6.673099D+00

 Vector   85  Occ=0.000000D+00  E= 6.687801D+00

 Vector   86  Occ=0.000000D+00  E= 6.691675D+00

 Vector   87  Occ=0.000000D+00  E= 6.713826D+00

 Vector   88  Occ=0.000000D+00  E= 6.885289D+00

 Vector   89  Occ=0.000000D+00  E= 7.247730D+00

 Vector   90  Occ=0.000000D+00  E= 7.271461D+00

 Vector   91  Occ=0.000000D+00  E= 8.098115D+00

 Vector   92  Occ=0.000000D+00  E= 1.444619D+01

     Multipole analysis of the density
     ---------------------------------

     L   x y z        total         alpha         beta         nuclear
     -   - - -        -----         -----         ----         -------
     0   0 0 0     -0.000000     -5.000000     -5.000000     10.000000

     1   1 0 0     -0.002317      0.001601      0.001601     -0.005519
     1   0 1 0      0.000000      0.000000      0.000000      0.000000
     1   0 0 1     -0.711195     -0.359306     -0.359306      0.007416

     2   2 0 0     -3.365445     -3.779155     -3.779155      4.192864
     2   1 1 0     -0.000000     -0.000000     -0.000000      0.000000
     2   1 0 1      0.007651     -0.008102     -0.008102      0.023856
     2   0 2 0     -5.847488     -2.923744     -2.923744      0.000000
     2   0 1 1      0.000000      0.000000      0.000000      0.000000

 Total times  cpu:      115.5s     wall:      116.4s
