============================== echo of input deck ==============================
echo
start o2_zora_so

geometry noautoz units angstrom
symmetry c1
 O 0 0 -0.60000000
 O 0 0  0.60000000
end

basis spherical
 * library "DZVP (DFT Orbital)"
end

dft
 grid xfine
 iterations 100
 XC b3lyp
 odft
 mult 3
end

driver
 clear
 maxiter 100
end

relativistic
  zora on
  zora:cutoff 1d-30
end

task sodft optimize
task sodft freq
================================================================================

@ Step       Energy      Delta E   Gmax     Grms     Xrms     Xmax   Walltime
@ ---- ---------------- -------- -------- -------- -------- -------- --------
@    0    -150.50696231  0.0D+00  0.03582  0.02068  0.00000  0.00000      3.0
@    1    -150.50766667 -7.0D-04  0.00032  0.00019  0.01214  0.02103      5.7

 Vector   33  Occ=0.000000D+00  E= 8.866425D-01

 Vector   34  Occ=0.000000D+00  E= 9.177381D-01

 Vector   35  Occ=0.000000D+00  E= 1.473630D+00

 Vector   36  Occ=0.000000D+00  E= 1.473739D+00

 Vector   37  Occ=0.000000D+00  E= 1.506916D+00

 Vector   38  Occ=0.000000D+00  E= 1.507040D+00

 Vector   39  Occ=0.000000D+00  E= 1.507549D+00

 Vector   40  Occ=0.000000D+00  E= 1.507652D+00

 Vector   41  Occ=0.000000D+00  E= 1.563133D+00

 Vector   42  Occ=0.000000D+00  E= 1.563237D+00

 Vector   43  Occ=0.000000D+00  E= 1.581172D+00

 Vector   44  Occ=0.000000D+00  E= 1.623200D+00

 Vector   45  Occ=0.000000D+00  E= 1.881675D+00

 Vector   46  Occ=0.000000D+00  E= 1.881791D+00

 Vector   47  Occ=0.000000D+00  E= 1.952558D+00

 Vector   48  Occ=0.000000D+00  E= 1.952675D+00

 Vector   49  Occ=0.000000D+00  E= 2.309919D+00

 Vector   50  Occ=0.000000D+00  E= 2.348140D+00

 Vector   51  Occ=0.000000D+00  E= 2.429220D+00

 Vector   52  Occ=0.000000D+00  E= 2.454959D+00

 Vector   53  Occ=0.000000D+00  E= 2.465280D+00

 Vector   54  Occ=0.000000D+00  E= 2.465375D+00

 Vector   55  Occ=0.000000D+00  E= 2.507740D+00

 Vector   56  Occ=0.000000D+00  E= 2.507835D+00

                       DFT Final Molecular Orbital Analysis
                       ------------------------------------

 Vector    1  Occ=1.000000D+00  E=-1.932341D+01

 Vector    2  Occ=1.000000D+00  E=-1.932321D+01

 Vector    3  Occ=1.000000D+00  E=-1.929177D+01

 Vector    4  Occ=1.000000D+00  E=-1.929144D+01

 Vector    5  Occ=1.000000D+00  E=-1.308248D+00

 Vector    6  Occ=1.000000D+00  E=-1.250131D+00

 Vector    7  Occ=1.000000D+00  E=-8.496088D-01

 Vector    8  Occ=1.000000D+00  E=-7.610724D-01

 Vector    9  Occ=1.000000D+00  E=-5.679980D-01

 Vector   10  Occ=1.000000D+00  E=-5.671528D-01

 Vector   11  Occ=1.000000D+00  E=-5.543842D-01

 Vector   12  Occ=1.000000D+00  E=-5.143837D-01

 Vector   13  Occ=1.000000D+00  E=-4.655296D-01

 Vector   14  Occ=1.000000D+00  E=-4.647901D-01

 Vector   15  Occ=1.000000D+00  E=-3.215690D-01

 Vector   16  Occ=1.000000D+00  E=-3.205048D-01

 Vector   17  Occ=0.000000D+00  E=-1.285229D-01

 Vector   18  Occ=0.000000D+00  E=-1.276142D-01

 Vector   19  Occ=0.000000D+00  E= 1.500083D-01

 Vector   20  Occ=0.000000D+00  E= 1.868842D-01

 Vector   21  Occ=0.000000D+00  E= 4.415230D-01

 Vector   22  Occ=0.000000D+00  E= 4.621213D-01

 Vector   23  Occ=0.000000D+00  E= 4.838134D-01

 Vector   24  Occ=0.000000D+00  E= 4.844921D-01

 Vector   25  Occ=0.000000D+00  E= 5.264162D-01

 Vector   26  Occ=0.000000D+00  E= 5.271710D-01

 Vector   27  Occ=0.000000D+00  E= 5.493024D-01

 Vector   28  Occ=0.000000D+00  E= 5.573617D-01

 Vector   29  Occ=0.000000D+00  E= 5.856201D-01

 Vector   30  Occ=0.000000D+00  E= 5.862277D-01

 Vector   31  Occ=0.000000D+00  E= 6.314628D-01

 Vector   32  Occ=0.000000D+00  E= 6.321690D-01

 Vector   33  Occ=0.000000D+00  E= 8.866252D-01

 Vector   34  Occ=0.000000D+00  E= 9.177210D-01

 Vector   35  Occ=0.000000D+00  E= 1.473730D+00

 Vector   36  Occ=0.000000D+00  E= 1.473839D+00

 Vector   37  Occ=0.000000D+00  E= 1.507021D+00

 Vector   38  Occ=0.000000D+00  E= 1.507145D+00

 Vector   39  Occ=0.000000D+00  E= 1.507475D+00

 Vector   40  Occ=0.000000D+00  E= 1.507579D+00

 Vector   41  Occ=0.000000D+00  E= 1.563055D+00

 Vector   42  Occ=0.000000D+00  E= 1.563159D+00

 Vector   43  Occ=0.000000D+00  E= 1.581304D+00

 Vector   44  Occ=0.000000D+00  E= 1.623335D+00

 Vector   45  Occ=0.000000D+00  E= 1.881769D+00

 Vector   46  Occ=0.000000D+00  E= 1.881885D+00

 Vector   47  Occ=0.000000D+00  E= 1.952655D+00

 Vector   48  Occ=0.000000D+00  E= 1.952772D+00

 Vector   49  Occ=0.000000D+00  E= 2.310294D+00

 Vector   50  Occ=0.000000D+00  E= 2.348517D+00

 Vector   51  Occ=0.000000D+00  E= 2.429258D+00

 Vector   52  Occ=0.000000D+00  E= 2.454994D+00

 Vector   53  Occ=0.000000D+00  E= 2.465464D+00

 Vector   54  Occ=0.000000D+00  E= 2.465559D+00

 Vector   55  Occ=0.000000D+00  E= 2.507926D+00

 Vector   56  Occ=0.000000D+00  E= 2.508021D+00

     Multipole analysis of the density
     ---------------------------------

     L   x y z        total         alpha         beta         nuclear
     -   - - -        -----         -----         ----         -------
     0   0 0 0     -0.000000     -8.999996     -7.000004     16.000000

     1   1 0 0     -0.000000     -0.000000     -0.000000      0.000000
     1   0 1 0     -0.000000     -0.000000     -0.000000     -0.000000
     1   0 0 1     -0.000004     -0.000001     -0.000004      0.000000

     2   2 0 0     -7.489093     -4.322005     -3.167089      0.000000
     2   1 1 0      0.000000      0.000000      0.000000      0.000000
     2   1 0 1      0.000000     -0.000000      0.000000      0.000000
     2   0 2 0     -7.489093     -4.322005     -3.167089      0.000000
     2   0 1 1      0.000000     -0.000000      0.000000      0.000000

@    2    -150.50766706 -4.0D-07  0.00027  0.00016  0.00022  0.00038      7.8
@    2    -150.50766706 -4.0D-07  0.00027  0.00016  0.00022  0.00038      7.8

 Output coordinates in angstroms (scale by  1.889725989 to convert to a.u.)

  No.       Tag          Charge          X              Y              Z
 ---- ---------------- ---------- -------------- -------------- --------------
    1 O                    8.0000    -0.00000000    -0.00000000    -0.61092767
    2 O                    8.0000     0.00000000     0.00000000     0.61092767

         Total DFT energy =   -150.507667062935
 Zero-Point correction to Energy  =    2.301 kcal/mol  (  0.003667 au)
 Thermal correction to Energy     =    3.784 kcal/mol  (  0.006030 au)
 Thermal correction to Enthalpy   =    4.376 kcal/mol  (  0.006973 au)
 Total Entropy                    =   48.208 cal/mol-K
   - Translational                =   36.304 cal/mol-K (mol. weight =  31.9898)
   - Rotational                   =   11.896 cal/mol-K (symmetry #  =        1)
   - Vibrational                  =    0.007 cal/mol-K
   - Translational                  =    2.979 cal/mol-K
   - Rotational                     =    1.986 cal/mol-K
   - Vibrational                    =    0.051 cal/mol-K
 P.Frequency       -0.00        0.00        0.00        0.00        0.00     1610.44
 Total times  cpu:       13.4s     wall:       15.2s
