============================== echo of input deck ==============================
echo

start oniom4_dat

# Test of two-layer ONIOM geometry optimization using MCSCF

geometry # sto-3g optmized geometry
  O     0.25977444     1.26351414    -0.32184727
  H    -1.42512409     0.38186873     0.37668588
  C    -0.38369252     0.28899452     0.02138351
  H     0.11527688    -1.57028792     1.00746379
  H    -0.46513157    -1.76803678    -0.64211149
  H     1.17645788    -1.17137932    -0.35247229
  C     0.15223603    -1.15091137     0.00543109
end

basis sto-3g
  h library sto-3g
  c library sto-3g
  o library sto-3g
end

basis dunning
  h library "SV (Dunning-Hay)"
  c library "SV (Dunning-Hay)"
  o library "SV (Dunning-Hay)"
end

scf
  thresh 1e-6
end

mcscf
  symmetry 1
  actelec 2
  active 2
  multiplicity 1
  maxiter 200
end

oniom
  print low
  high MCSCF basis dunning
  low  scf basis sto-3g
  model 3  3 7 0.709
end

driver
  clear
end  # So that results are more reproducible

task oniom optimize

#task oniom freq
================================================================================

         Total SCF energy =   -150.945992976954
         Total SCF energy =   -112.354098171670
@ Step       Energy      Delta E   Gmax     Grms     Xrms     Xmax   Walltime
@ ---- ---------------- -------- -------- -------- -------- -------- --------
@    0    -152.42493955  0.0D+00  0.01018  0.00318  0.00000  0.00000      7.1
         Total SCF energy =   -150.945536739209
         Total SCF energy =   -112.353572387831
         Total SCF energy =   -150.945536739572
         Total SCF energy =   -112.353572387831
@    1    -152.42535804 -4.2D-04  0.00501  0.00114  0.01194  0.03134      9.5
         Total SCF energy =   -150.945414905924
         Total SCF energy =   -112.353410689856
         Total SCF energy =   -150.945445841974
         Total SCF energy =   -112.353448024163
@    2    -152.42539283 -3.5D-05  0.00126  0.00034  0.00393  0.00990     10.4
         Total SCF energy =   -150.945430681095
         Total SCF energy =   -112.353432803743
         Total SCF energy =   -150.945430681361
         Total SCF energy =   -112.353432803743
@    3    -152.42539748 -4.6D-06  0.00011  0.00004  0.00255  0.00757     11.0
         Total SCF energy =   -150.945435352144
         Total SCF energy =   -112.353441726292
         Total SCF energy =   -150.945437221006
         Total SCF energy =   -112.353445402758

     Multipole analysis of the density
     ---------------------------------

     L   x y z        total        nuclear
     -   - - -        -----        -------
     0   0 0 0     -0.000000     16.000000

     1   1 0 0     -0.690495     -3.852835
     1   0 1 0     -1.050001     20.225335
     1   0 0 1      0.000000      0.000000

     2   2 0 0     -8.419555     13.751425
     2   1 1 0     -1.020293      5.325179
     2   1 0 1     -0.000000      0.000000
     2   0 2 0    -11.640322     46.990261
     2   0 1 1      0.000000      0.000000

@    4    -152.42539770 -2.3D-07  0.00004  0.00001  0.00046  0.00124     11.8
@    4    -152.42539770 -2.3D-07  0.00004  0.00001  0.00046  0.00124     11.8

 Output coordinates in angstroms (scale by  1.889725989 to convert to a.u.)

  No.       Tag          Charge          X              Y              Z
 ---- ---------------- ---------- -------------- -------------- --------------
    1 O                    8.0000     0.25071563     1.23449185     0.00000000
    2 H                    1.0000    -1.50904462     0.28503519     0.00000000
    3 C                    6.0000    -0.42243513     0.21913247     0.00000000
    4 H                    1.0000    -0.15697722    -1.72841557     0.87908982
    5 H                    1.0000    -0.15697722    -1.72841557    -0.87908982
    6 H                    1.0000     1.25586956    -1.12688993     0.00000000
    7 C                    6.0000     0.17211047    -1.18017692     0.00000000

 Total times  cpu:       10.2s     wall:       11.8s
