============================== echo of input deck ==============================
echo

start oniom4_dat

# Test of two-layer ONIOM geometry optimization and unscaled frequencies
# for acetaldehyde following
# Dapprich, Komaromi, Byun, Morokuma and Frisch, J. Mol. Struct (Theochem)
# 461-462 (1999) 1-21.

# Vibrational frequencies and geometry are correctly reproduced.
# See end for the correct output, or look in the paper.

geometry # sto-3g optmized geometry
  O     0.25977444     1.26351414    -0.32184727
  H    -1.42512409     0.38186873     0.37668588
  C    -0.38369252     0.28899452     0.02138351
  H     0.11527688    -1.57028792     1.00746379
  H    -0.46513157    -1.76803678    -0.64211149
  H     1.17645788    -1.17137932    -0.35247229
  C     0.15223603    -1.15091137     0.00543109
end

basis sto-3g
  h library sto-3g
  c library sto-3g
  o library sto-3g
end

basis dunning
  h library "SV (Dunning-Hay)"
  c library "SV (Dunning-Hay)"
  o library "SV (Dunning-Hay)"
end

scf;
  thresh 1e-6;
end

mcscf
  symmetry 1
  actelec 2
  active 2
  multiplicity 1
  maxiter 200
end

oniom
# print low
  high mcscf basis dunning
  low  scf basis sto-3g
  model 3  3 7 0.709
end

driver; clear; end  # So that results are more reproducible
task oniom optimize

#task oniom freq
================================================================================

         Total SCF energy =   -150.945992976900
         Total SCF energy =   -112.354098171624
@ Step       Energy      Delta E   Gmax     Grms     Xrms     Xmax   Walltime
@ ---- ---------------- -------- -------- -------- -------- -------- --------
@    0    -152.42493955  0.0D+00  0.01018  0.00318  0.00000  0.00000      3.6
         Total SCF energy =   -150.945536739278
         Total SCF energy =   -112.353572387911
         Total SCF energy =   -150.945536739641
         Total SCF energy =   -112.353572387911
@    1    -152.42535803 -4.2D-04  0.00501  0.00114  0.01194  0.03134      6.1
         Total SCF energy =   -150.945414905997
         Total SCF energy =   -112.353410689937
         Total SCF energy =   -150.945445841877
         Total SCF energy =   -112.353448024044
@    2    -152.42539283 -3.5D-05  0.00126  0.00034  0.00393  0.00990      8.1
         Total SCF energy =   -150.945430681110
         Total SCF energy =   -112.353432803761
         Total SCF energy =   -150.945430681375
         Total SCF energy =   -112.353432803761
@    3    -152.42539748 -4.6D-06  0.00011  0.00004  0.00255  0.00757     10.0
         Total SCF energy =   -150.945435352139

 Vector   17  Occ=0.000000D+00  E= 7.326368D-01  Symmetry=a'

 Vector   18  Occ=0.000000D+00  E= 7.766057D-01  Symmetry=a'

 Vector   19  Occ=0.000000D+00  E= 9.686451D-01  Symmetry=a'

         Total SCF energy =   -112.353441726300

 Vector    2  Occ=2.000000D+00  E=-1.112348D+01  Symmetry=a'

 Vector    3  Occ=2.000000D+00  E=-1.336484D+00  Symmetry=a'

 Vector    4  Occ=2.000000D+00  E=-8.129743D-01  Symmetry=a'

 Vector    5  Occ=2.000000D+00  E=-6.402457D-01  Symmetry=a'

 Vector    6  Occ=2.000000D+00  E=-5.448459D-01  Symmetry=a'

 Vector    7  Occ=2.000000D+00  E=-4.421417D-01  Symmetry=a"

 Vector    8  Occ=2.000000D+00  E=-3.564292D-01  Symmetry=a'

 Vector    9  Occ=0.000000D+00  E= 2.811830D-01  Symmetry=a"

 Vector   10  Occ=0.000000D+00  E= 6.456604D-01  Symmetry=a'

 Vector   11  Occ=0.000000D+00  E= 7.569950D-01  Symmetry=a'

 Vector   12  Occ=0.000000D+00  E= 9.093118D-01  Symmetry=a'

 Vector    1  Occ=2.000000D+00  E=-2.058601D+01  Symmetry=a'

 Vector    2  Occ=2.000000D+00  E=-1.134873D+01  Symmetry=a'

 Vector    3  Occ=2.000000D+00  E=-1.419936D+00  Symmetry=a'

 Vector    4  Occ=2.000000D+00  E=-7.091382D-01  Symmetry=a'

 Vector    5  Occ=2.000000D+00  E=-6.707236D-01  Symmetry=a'

 Vector    6  Occ=2.000000D+00  E=-5.317123D-01  Symmetry=a"

 Vector    7  Occ=2.000000D+00  E=-4.470387D-01  Symmetry=a'

 Vector    8  Occ=1.995401D+00  E=-8.653680D-01  Symmetry=a'

 Vector    9  Occ=4.599238D-03  E=-3.445032D-03  Symmetry=a"

 Vector   10  Occ=0.000000D+00  E= 2.779607D-01  Symmetry=a'

 Vector   11  Occ=0.000000D+00  E= 2.935370D-01  Symmetry=a'

 Vector   12  Occ=0.000000D+00  E= 3.726844D-01  Symmetry=a'

 Vector   13  Occ=0.000000D+00  E= 4.123035D-01  Symmetry=a"

 Vector   14  Occ=0.000000D+00  E= 4.515093D-01  Symmetry=a'

 Vector   15  Occ=0.000000D+00  E= 6.399242D-01  Symmetry=a'

 Vector   16  Occ=0.000000D+00  E= 8.622971D-01  Symmetry=a'

 Vector   17  Occ=0.000000D+00  E= 9.622636D-01  Symmetry=a"

 Vector   18  Occ=0.000000D+00  E= 9.707103D-01  Symmetry=a'

 Vector   19  Occ=0.000000D+00  E= 1.060563D+00  Symmetry=a'

         Total SCF energy =   -150.945437224265

 Vector    3  Occ=2.000000D+00  E=-1.105514D+01  Symmetry=a'

 Vector    4  Occ=2.000000D+00  E=-1.327356D+00  Symmetry=a'

 Vector    5  Occ=2.000000D+00  E=-9.621169D-01  Symmetry=a'

 Vector    6  Occ=2.000000D+00  E=-7.499975D-01  Symmetry=a'

 Vector    7  Occ=2.000000D+00  E=-6.103047D-01  Symmetry=a'

 Vector    8  Occ=2.000000D+00  E=-5.615439D-01  Symmetry=a"

 Vector    9  Occ=2.000000D+00  E=-5.440558D-01  Symmetry=a'

 Vector   10  Occ=2.000000D+00  E=-5.006011D-01  Symmetry=a'

 Vector   11  Occ=2.000000D+00  E=-4.132285D-01  Symmetry=a"

 Vector   12  Occ=2.000000D+00  E=-3.382620D-01  Symmetry=a'

 Vector   13  Occ=0.000000D+00  E= 2.909387D-01  Symmetry=a"

 Vector   14  Occ=0.000000D+00  E= 6.295509D-01  Symmetry=a'

 Vector   15  Occ=0.000000D+00  E= 6.648234D-01  Symmetry=a'

 Vector   16  Occ=0.000000D+00  E= 7.093762D-01  Symmetry=a"

 Vector   17  Occ=0.000000D+00  E= 7.326012D-01  Symmetry=a'

 Vector   18  Occ=0.000000D+00  E= 7.765785D-01  Symmetry=a'

 Vector   19  Occ=0.000000D+00  E= 9.686029D-01  Symmetry=a'

         Total SCF energy =   -112.353445409240

 Vector    2  Occ=2.000000D+00  E=-1.112347D+01  Symmetry=a'

 Vector    3  Occ=2.000000D+00  E=-1.336473D+00  Symmetry=a'

 Vector    4  Occ=2.000000D+00  E=-8.129633D-01  Symmetry=a'

 Vector    5  Occ=2.000000D+00  E=-6.402329D-01  Symmetry=a'

 Vector    6  Occ=2.000000D+00  E=-5.448388D-01  Symmetry=a'

 Vector    7  Occ=2.000000D+00  E=-4.421320D-01  Symmetry=a"

 Vector    8  Occ=2.000000D+00  E=-3.564276D-01  Symmetry=a'

 Vector    9  Occ=0.000000D+00  E= 2.811791D-01  Symmetry=a"

 Vector   10  Occ=0.000000D+00  E= 6.456230D-01  Symmetry=a'

 Vector   11  Occ=0.000000D+00  E= 7.569788D-01  Symmetry=a'

 Vector   12  Occ=0.000000D+00  E= 9.092775D-01  Symmetry=a'

 Vector    1  Occ=2.000000D+00  E=-2.058602D+01  Symmetry=a'

 Vector    2  Occ=2.000000D+00  E=-1.134873D+01  Symmetry=a'

 Vector    3  Occ=2.000000D+00  E=-1.419921D+00  Symmetry=a'

 Vector    4  Occ=2.000000D+00  E=-7.091345D-01  Symmetry=a'

 Vector    5  Occ=2.000000D+00  E=-6.706830D-01  Symmetry=a'

 Vector    6  Occ=2.000000D+00  E=-5.317078D-01  Symmetry=a"

 Vector    7  Occ=2.000000D+00  E=-4.470385D-01  Symmetry=a'

 Vector    8  Occ=1.995401D+00  E=-8.654137D-01  Symmetry=a'

 Vector    9  Occ=4.599017D-03  E=-3.445031D-03  Symmetry=a"

 Vector   10  Occ=0.000000D+00  E= 2.779579D-01  Symmetry=a'

 Vector   11  Occ=0.000000D+00  E= 2.935235D-01  Symmetry=a'

 Vector   12  Occ=0.000000D+00  E= 3.726931D-01  Symmetry=a'

 Vector   13  Occ=0.000000D+00  E= 4.123051D-01  Symmetry=a"

 Vector   14  Occ=0.000000D+00  E= 4.514899D-01  Symmetry=a'

 Vector   15  Occ=0.000000D+00  E= 6.399340D-01  Symmetry=a'

 Vector   16  Occ=0.000000D+00  E= 8.622948D-01  Symmetry=a'

 Vector   17  Occ=0.000000D+00  E= 9.622569D-01  Symmetry=a"

 Vector   18  Occ=0.000000D+00  E= 9.706900D-01  Symmetry=a'

 Vector   19  Occ=0.000000D+00  E= 1.060559D+00  Symmetry=a'

     Multipole analysis of the density
     ---------------------------------

     L   x y z        total        nuclear
     -   - - -        -----        -------
     0   0 0 0      0.000000     16.000000

     1   1 0 0     -0.690495     -3.852833
     1   0 1 0     -1.050001     20.225332
     1   0 0 1      0.000000      0.000000

     2   2 0 0     -8.419555     13.751431
     2   1 1 0     -1.020293      5.325186
     2   1 0 1      0.000000      0.000000
     2   0 2 0    -11.640321     46.990249
     2   0 1 1      0.000000      0.000000

@    4    -152.42539770 -2.3D-07  0.00004  0.00001  0.00046  0.00124     11.9
@    4    -152.42539770 -2.3D-07  0.00004  0.00001  0.00046  0.00124     11.9

 Output coordinates in angstroms (scale by  1.889725989 to convert to a.u.)

  No.       Tag          Charge          X              Y              Z
 ---- ---------------- ---------- -------------- -------------- --------------
    1 O                    8.0000     0.25071587     1.23449167     0.00000000
    2 H                    1.0000    -1.50904471     0.28503528     0.00000000
    3 C                    6.0000    -0.42243521     0.21913246     0.00000000
    4 H                    1.0000    -0.15697713    -1.72841562     0.87908993
    5 H                    1.0000    -0.15697713    -1.72841562    -0.87908993
    6 H                    1.0000     1.25586944    -1.12688959     0.00000000
    7 C                    6.0000     0.17211035    -1.18017707     0.00000000

 Total times  cpu:       10.4s     wall:       11.9s
