============================== echo of input deck ==============================
echo

start 5h2o_core

memory 1000 mb

geometry
symmetry c1
O      2.289015       0.225784       0.175030
H      1.837891      -0.638872       0.046444
H      2.811304       0.122451       0.974687
O      0.929887      -2.095904      -0.167528
H     -0.037083      -1.936553      -0.084181
H      1.034959      -2.583078      -0.988978
O     -1.718101      -1.549268       0.073447
H     -1.882083      -0.580570       0.056990
H     -2.170566      -1.871677       0.857083
O     -1.987637       1.157925      -0.077866
H     -1.103971       1.590183      -0.076556
H     -2.534625       1.699982       0.496152
O      0.498426       2.249945      -0.063688
H      1.178269       1.547359       0.044627
H      0.773193       2.742924      -0.841426
end

basis
  O library 6-31g
  H library 6-31g
end

dft
  xc beckehandh
end

tddft
  cis
  ecut -10    # energy cutoff of occupied states in au
  nroots 10
  notriplet
end
task tddft
================================================================================

 Output coordinates in angstroms (scale by  1.889725989 to convert to a.u.)

  No.       Tag          Charge          X              Y              Z
 ---- ---------------- ---------- -------------- -------------- --------------
    1 O                    8.0000     2.28901484     0.22578390     0.17502996
    2 H                    1.0000     1.83789084    -0.63887210     0.04644396
    3 H                    1.0000     2.81130384     0.12245090     0.97468696
    4 O                    8.0000     0.92988684    -2.09590410    -0.16752804
    5 H                    1.0000    -0.03708316    -1.93655310    -0.08418104
    6 H                    1.0000     1.03495884    -2.58307810    -0.98897804
    7 O                    8.0000    -1.71810116    -1.54926810     0.07344696
    8 H                    1.0000    -1.88208316    -0.58057010     0.05698996
    9 H                    1.0000    -2.17056616    -1.87167710     0.85708296
   10 O                    8.0000    -1.98763716     1.15792490    -0.07786604
   11 H                    1.0000    -1.10397116     1.59018290    -0.07655604
   12 H                    1.0000    -2.53462516     1.69998190     0.49615196
   13 O                    8.0000     0.49842584     2.24994490    -0.06368804
   14 H                    1.0000     1.17826884     1.54735890     0.04462696
   15 H                    1.0000     0.77319284     2.74292390    -0.84142604

         Total DFT energy =     -379.612584688880

                       DFT Final Molecular Orbital Analysis
                       ------------------------------------

 Vector    1  Occ=2.000000D+00  E=-1.956805D+01

 Vector    2  Occ=2.000000D+00  E=-1.956628D+01

 Vector    3  Occ=2.000000D+00  E=-1.956626D+01

 Vector    4  Occ=2.000000D+00  E=-1.956624D+01

 Vector    5  Occ=2.000000D+00  E=-1.956575D+01

 Vector    6  Occ=2.000000D+00  E=-1.136896D+00

 Vector    7  Occ=2.000000D+00  E=-1.127633D+00

 Vector    8  Occ=2.000000D+00  E=-1.126686D+00

 Vector    9  Occ=2.000000D+00  E=-1.111230D+00

 Vector   10  Occ=2.000000D+00  E=-1.110170D+00

 Vector   11  Occ=2.000000D+00  E=-5.936209D-01

 Vector   12  Occ=2.000000D+00  E=-5.892532D-01

 Vector   13  Occ=2.000000D+00  E=-5.870927D-01

 Vector   14  Occ=2.000000D+00  E=-5.839620D-01

 Vector   15  Occ=2.000000D+00  E=-5.827381D-01

 Vector   16  Occ=2.000000D+00  E=-4.709483D-01

 Vector   17  Occ=2.000000D+00  E=-4.675946D-01

 Vector   18  Occ=2.000000D+00  E=-4.245839D-01

 Vector   19  Occ=2.000000D+00  E=-4.226809D-01

 Vector   20  Occ=2.000000D+00  E=-3.947221D-01

 Vector   21  Occ=2.000000D+00  E=-3.671083D-01

 Vector   22  Occ=2.000000D+00  E=-3.634025D-01

 Vector   23  Occ=2.000000D+00  E=-3.629603D-01

 Vector   24  Occ=2.000000D+00  E=-3.619751D-01

 Vector   25  Occ=2.000000D+00  E=-3.591877D-01

 Vector   26  Occ=0.000000D+00  E= 1.137500D-01

 Vector   27  Occ=0.000000D+00  E= 1.456567D-01

 Vector   28  Occ=0.000000D+00  E= 1.486116D-01

 Vector   29  Occ=0.000000D+00  E= 1.774832D-01

 Vector   30  Occ=0.000000D+00  E= 1.781143D-01

 Vector   31  Occ=0.000000D+00  E= 2.846057D-01

 Vector   32  Occ=0.000000D+00  E= 3.358511D-01

 Vector   33  Occ=0.000000D+00  E= 3.383305D-01

 Vector   34  Occ=0.000000D+00  E= 3.881012D-01

 Vector   35  Occ=0.000000D+00  E= 3.904497D-01

 Vector   36  Occ=0.000000D+00  E= 8.828287D-01

 Vector   37  Occ=0.000000D+00  E= 8.928716D-01

 Vector   38  Occ=0.000000D+00  E= 9.070949D-01

 Vector   39  Occ=0.000000D+00  E= 9.085108D-01

 Vector   40  Occ=0.000000D+00  E= 9.367440D-01

 Vector   41  Occ=0.000000D+00  E= 9.450638D-01

 Vector   42  Occ=0.000000D+00  E= 9.702087D-01

 Vector   43  Occ=0.000000D+00  E= 9.929756D-01

 Vector   44  Occ=0.000000D+00  E= 9.935006D-01

 Vector   45  Occ=0.000000D+00  E= 1.022472D+00

 Vector   46  Occ=0.000000D+00  E= 1.033720D+00

 Vector   47  Occ=0.000000D+00  E= 1.069823D+00

 Vector   48  Occ=0.000000D+00  E= 1.076067D+00

 Vector   49  Occ=0.000000D+00  E= 1.077971D+00

 Vector   50  Occ=0.000000D+00  E= 1.084178D+00

 Vector   51  Occ=0.000000D+00  E= 1.179653D+00

 Vector   52  Occ=0.000000D+00  E= 1.213375D+00

 Vector   53  Occ=0.000000D+00  E= 1.218999D+00

 Vector   54  Occ=0.000000D+00  E= 1.229965D+00

 Vector   55  Occ=0.000000D+00  E= 1.234540D+00

 Vector   56  Occ=0.000000D+00  E= 1.237262D+00

 Vector   57  Occ=0.000000D+00  E= 1.249530D+00

 Vector   58  Occ=0.000000D+00  E= 1.275865D+00

 Vector   59  Occ=0.000000D+00  E= 1.304246D+00

 Vector   60  Occ=0.000000D+00  E= 1.310094D+00

 Vector   61  Occ=0.000000D+00  E= 1.669304D+00

 Vector   62  Occ=0.000000D+00  E= 1.675278D+00

 Vector   63  Occ=0.000000D+00  E= 1.937324D+00

 Vector   64  Occ=0.000000D+00  E= 1.955775D+00

 Vector   65  Occ=0.000000D+00  E= 1.963324D+00

     Multipole analysis of the density
     ---------------------------------

     L   x y z        total         alpha         beta         nuclear
     -   - - -        -----         -----         ----         -------
     0   0 0 0     -0.000000    -25.000000    -25.000000     50.000000

     1   1 0 0     -0.093528     -0.046764     -0.046764     -0.000000
     1   0 1 0      0.085615      0.042807      0.042807      0.000000
     1   0 0 1      0.527925      0.263963      0.263963      0.000000

     2   2 0 0    -21.050493   -253.855501   -253.855501    486.660509
     2   1 1 0     -0.826388     -0.413160     -0.413160     -0.000069
     2   1 0 1     -4.174653     -2.087349     -2.087349      0.000046
     2   0 2 0    -21.353173   -253.507209   -253.507209    485.661244
     2   0 1 1     -0.741849     -0.370918     -0.370918     -0.000012

  Root   1 singlet a             19.480102943 a.u.              530.0808 eV
     Dipole Oscillator Strength                    0.0133254681
  Root   2 singlet a             19.480151978 a.u.              530.0821 eV
     Dipole Oscillator Strength                    0.0411864468
  Root   3 singlet a             19.483492699 a.u.              530.1730 eV
     Dipole Oscillator Strength                    0.0267237143
  Root   4 singlet a             19.484030378 a.u.              530.1877 eV
     Dipole Oscillator Strength                    0.0273017123
  Root   5 singlet a             19.484539898 a.u.              530.2015 eV
     Dipole Oscillator Strength                    0.0274095518
  Root   6 singlet a             19.582745294 a.u.              532.8738 eV
     Dipole Oscillator Strength                    0.0259095900
  Root   7 singlet a             19.583909799 a.u.              532.9055 eV
     Dipole Oscillator Strength                    0.0213671983
  Root   8 singlet a             19.583950788 a.u.              532.9066 eV
     Dipole Oscillator Strength                    0.0297162875
  Root   9 singlet a             19.584302336 a.u.              532.9162 eV
     Dipole Oscillator Strength                    0.0257371314
  Root  10 singlet a             19.585055539 a.u.              532.9367 eV
     Dipole Oscillator Strength                    0.0272622958
 Total times  cpu:       10.4s     wall:       10.6s
