============================== echo of input deck ==============================
echo
start

geometry units bohr
C         -3.4889915040            0.0757243564            0.0000000000
C         -1.1660674990           -0.8921396346            0.0000000000
C          1.0745076249            0.7531195619            0.0000000000
O          3.2306456355           -0.0048697519            0.0000000000
H         -5.1598072439           -1.1007803728            0.0000000000
H         -3.7843301456            2.1030589485            0.0000000000
H         -0.8202431053           -2.9101405740            0.0000000000
H          0.6573804135            2.8079130427            0.0000000000
end

basis spherical
 * library "cc-pVTZ"
end

#basis "cd basis"
#*  library "DGauss A2 DFT Coulomb Fitting"
#end

set int:cando_txs f

dft
 xc xcamb88 1.00 lyp 0.81 vwn_5 0.19 hfexch 1.00
 cam 0.33 cam_alpha 0.19 cam_beta 0.81
 direct
# odft
# mult 1
end
#task dft energy

#property
# center com
# dipole
#end
#task dft property

tddft
 nroots 5
 notriplet
 algorithm 3
end
task tddft energy
================================================================================

 Output coordinates in a.u. (scale by  1.000000000 to convert to a.u.)

  No.       Tag          Charge          X              Y              Z
 ---- ---------------- ---------- -------------- -------------- --------------
    1 C                    6.0000     0.25763286     3.32137763     0.00000000
    2 C                    6.0000    -0.84664484     1.06011528     0.00000000
    3 C                    6.0000     0.66247352    -1.27432608     0.00000000
    4 O                    8.0000    -0.22238340    -3.38157718     0.00000000
    5 H                    1.0000    -0.81743964     5.05919457     0.00000000
    6 H                    1.0000     2.29894170     3.49564380     0.00000000
    7 H                    1.0000    -2.88163854     0.83489769     0.00000000
    8 H                    1.0000     2.73843448    -0.98011961     0.00000000

         Total DFT energy =     -191.746872724390

                       DFT Final Molecular Orbital Analysis
                       ------------------------------------

 Vector    1  Occ=2.000000D+00  E=-1.926156D+01  Symmetry=a'

 Vector   97  Occ=0.000000D+00  E= 3.001588D+00  Symmetry=a'

 Vector   98  Occ=0.000000D+00  E= 3.017630D+00  Symmetry=a'

 Vector   99  Occ=0.000000D+00  E= 3.042436D+00  Symmetry=a"

 Vector  100  Occ=0.000000D+00  E= 3.061855D+00  Symmetry=a'

 Vector  101  Occ=0.000000D+00  E= 3.063590D+00  Symmetry=a"

 Vector  102  Occ=0.000000D+00  E= 3.112102D+00  Symmetry=a'

 Vector  103  Occ=0.000000D+00  E= 3.168592D+00  Symmetry=a"

 Vector  104  Occ=0.000000D+00  E= 3.174667D+00  Symmetry=a'

 Vector  105  Occ=0.000000D+00  E= 3.199142D+00  Symmetry=a'

 Vector  106  Occ=0.000000D+00  E= 3.238863D+00  Symmetry=a"

 Vector  107  Occ=0.000000D+00  E= 3.270035D+00  Symmetry=a"

 Vector  108  Occ=0.000000D+00  E= 3.272301D+00  Symmetry=a'

 Vector  109  Occ=0.000000D+00  E= 3.333773D+00  Symmetry=a'

 Vector  110  Occ=0.000000D+00  E= 3.360056D+00  Symmetry=a"

 Vector  111  Occ=0.000000D+00  E= 3.406273D+00  Symmetry=a"

 Vector  112  Occ=0.000000D+00  E= 3.407401D+00  Symmetry=a'

 Vector  113  Occ=0.000000D+00  E= 3.468642D+00  Symmetry=a'

 Vector  114  Occ=0.000000D+00  E= 3.502718D+00  Symmetry=a'

 Vector  115  Occ=0.000000D+00  E= 3.557646D+00  Symmetry=a'

 Vector  116  Occ=0.000000D+00  E= 3.611201D+00  Symmetry=a'

 Vector  117  Occ=0.000000D+00  E= 3.620222D+00  Symmetry=a"

 Vector  118  Occ=0.000000D+00  E= 3.696418D+00  Symmetry=a'

 Vector  119  Occ=0.000000D+00  E= 3.723918D+00  Symmetry=a"

 Vector  120  Occ=0.000000D+00  E= 3.727305D+00  Symmetry=a'

 Vector  121  Occ=0.000000D+00  E= 3.803712D+00  Symmetry=a'

 Vector  122  Occ=0.000000D+00  E= 3.821989D+00  Symmetry=a"

 Vector  123  Occ=0.000000D+00  E= 3.857444D+00  Symmetry=a'

 Vector  124  Occ=0.000000D+00  E= 3.916873D+00  Symmetry=a"

 Vector  125  Occ=0.000000D+00  E= 3.948331D+00  Symmetry=a'

 Vector  126  Occ=0.000000D+00  E= 3.984171D+00  Symmetry=a"

 Vector  127  Occ=0.000000D+00  E= 3.993424D+00  Symmetry=a'

 Vector  128  Occ=0.000000D+00  E= 4.013144D+00  Symmetry=a'

 Vector  129  Occ=0.000000D+00  E= 4.056647D+00  Symmetry=a"

 Vector  130  Occ=0.000000D+00  E= 4.090315D+00  Symmetry=a"

 Vector  131  Occ=0.000000D+00  E= 4.116499D+00  Symmetry=a'

 Vector  132  Occ=0.000000D+00  E= 4.181948D+00  Symmetry=a"

 Vector  133  Occ=0.000000D+00  E= 4.242548D+00  Symmetry=a'

 Vector  134  Occ=0.000000D+00  E= 4.244032D+00  Symmetry=a"

 Vector  135  Occ=0.000000D+00  E= 4.300705D+00  Symmetry=a'

 Vector  136  Occ=0.000000D+00  E= 4.353126D+00  Symmetry=a'

 Vector  137  Occ=0.000000D+00  E= 4.379886D+00  Symmetry=a"

 Vector  138  Occ=0.000000D+00  E= 4.432079D+00  Symmetry=a'

 Vector  139  Occ=0.000000D+00  E= 4.478578D+00  Symmetry=a'

 Vector  140  Occ=0.000000D+00  E= 4.515454D+00  Symmetry=a'

 Vector  141  Occ=0.000000D+00  E= 4.579668D+00  Symmetry=a"

 Vector  142  Occ=0.000000D+00  E= 4.604644D+00  Symmetry=a'

 Vector  143  Occ=0.000000D+00  E= 4.753723D+00  Symmetry=a'

 Vector  144  Occ=0.000000D+00  E= 4.761038D+00  Symmetry=a"

 Vector  145  Occ=0.000000D+00  E= 4.826777D+00  Symmetry=a'

 Vector  146  Occ=0.000000D+00  E= 4.869328D+00  Symmetry=a"

 Vector  147  Occ=0.000000D+00  E= 4.957022D+00  Symmetry=a'

 Vector  148  Occ=0.000000D+00  E= 4.975220D+00  Symmetry=a'

 Vector  149  Occ=0.000000D+00  E= 5.031218D+00  Symmetry=a'

 Vector  150  Occ=0.000000D+00  E= 5.063155D+00  Symmetry=a"

 Vector  151  Occ=0.000000D+00  E= 5.150587D+00  Symmetry=a'

 Vector  152  Occ=0.000000D+00  E= 5.213391D+00  Symmetry=a'

 Vector  153  Occ=0.000000D+00  E= 5.229577D+00  Symmetry=a"

 Vector  154  Occ=0.000000D+00  E= 5.304028D+00  Symmetry=a'

 Vector  155  Occ=0.000000D+00  E= 5.364169D+00  Symmetry=a"

 Vector  156  Occ=0.000000D+00  E= 5.436932D+00  Symmetry=a'

 Vector  157  Occ=0.000000D+00  E= 5.510307D+00  Symmetry=a'

 Vector  158  Occ=0.000000D+00  E= 5.552046D+00  Symmetry=a'

 Vector  159  Occ=0.000000D+00  E= 5.651704D+00  Symmetry=a'

 Vector  160  Occ=0.000000D+00  E= 5.784296D+00  Symmetry=a"

 Vector  161  Occ=0.000000D+00  E= 5.911902D+00  Symmetry=a'

 Vector  162  Occ=0.000000D+00  E= 6.026728D+00  Symmetry=a'

 Vector  163  Occ=0.000000D+00  E= 6.089661D+00  Symmetry=a'

 Vector  164  Occ=0.000000D+00  E= 6.256213D+00  Symmetry=a'

 Vector  165  Occ=0.000000D+00  E= 6.312461D+00  Symmetry=a"

 Vector  166  Occ=0.000000D+00  E= 6.465609D+00  Symmetry=a'

 Vector  167  Occ=0.000000D+00  E= 6.489599D+00  Symmetry=a"

 Vector  168  Occ=0.000000D+00  E= 6.571031D+00  Symmetry=a'

 Vector  169  Occ=0.000000D+00  E= 6.948761D+00  Symmetry=a"

 Vector  170  Occ=0.000000D+00  E= 7.055012D+00  Symmetry=a'

 Vector  171  Occ=0.000000D+00  E= 7.146318D+00  Symmetry=a'

 Vector  172  Occ=0.000000D+00  E= 7.238799D+00  Symmetry=a'

 Vector  173  Occ=0.000000D+00  E= 1.053548D+01  Symmetry=a'

 Vector  174  Occ=0.000000D+00  E= 1.119271D+01  Symmetry=a'

 Vector  175  Occ=0.000000D+00  E= 1.306143D+01  Symmetry=a'

 Vector  176  Occ=0.000000D+00  E= 1.425798D+01  Symmetry=a'

     Multipole analysis of the density
     ---------------------------------

     L   x y z        total         alpha         beta         nuclear
     -   - - -        -----         -----         ----         -------
     0   0 0 0     -0.000000    -15.000000    -15.000000     30.000000

     1   1 0 0      0.276644      0.138322      0.138322      0.000000
     1   0 1 0      1.282762      0.641381      0.641381     -0.000000
     1   0 0 1     -0.000000     -0.000000     -0.000000      0.000000

     2   2 0 0    -16.181421    -22.832790    -22.832790     29.484160
     2   1 1 0     -0.623696     -0.067131     -0.067131     -0.489433
     2   1 0 1     -0.000000     -0.000000     -0.000000      0.000000
     2   0 2 0    -20.133925   -116.881454   -116.881454    213.628982
     2   0 1 1      0.000000      0.000000      0.000000      0.000000

  Root   1 singlet a"             0.143379303 a.u.                3.9016 eV
     Dipole Oscillator Strength                    0.0002742784
  Root   2 singlet a'             0.244532851 a.u.                6.6541 eV
     Dipole Oscillator Strength                    0.4458088600
  Root   3 singlet a"             0.277785685 a.u.                7.5589 eV
     Dipole Oscillator Strength                    0.0000657611
  Root   4 singlet a"             0.299585527 a.u.                8.1521 eV
     Dipole Oscillator Strength                    0.0002782460
  Root   5 singlet a"             0.315532897 a.u.                8.5861 eV
     Dipole Oscillator Strength                    0.0026329900
 Total times  cpu:      524.6s     wall:      528.5s
