============================== echo of input deck ==============================
echo
start

geometry units bohr
C         -3.4889915040            0.0757243564            0.0000000000
C         -1.1660674990           -0.8921396346            0.0000000000
C          1.0745076249            0.7531195619            0.0000000000
O          3.2306456355           -0.0048697519            0.0000000000
H         -5.1598072439           -1.1007803728            0.0000000000
H         -3.7843301456            2.1030589485            0.0000000000
H         -0.8202431053           -2.9101405740            0.0000000000
H          0.6573804135            2.8079130427            0.0000000000
end

basis spherical
 * library "cc-pVTZ"
end

#basis "cd basis"
#*  library "DGauss A2 DFT Coulomb Fitting"
#end

set int:cando_txs f

dft
 xc xcamb88 1.00 lyp 0.81 vwn_5 0.19 hfexch 1.00
 cam 0.33 cam_alpha 0.19 cam_beta 0.81
 direct
# odft
# mult 1
end
#task dft energy

#property
# center com
# dipole
#end
#task dft property

tddft
 nroots 5
 notriplet
 algorithm 3
end
task tddft energy
================================================================================

 Output coordinates in a.u. (scale by  1.000000000 to convert to a.u.)

  No.       Tag          Charge          X              Y              Z
 ---- ---------------- ---------- -------------- -------------- --------------
    1 C                    6.0000     0.25763286     3.32137763     0.00000000
    2 C                    6.0000    -0.84664484     1.06011528     0.00000000
    3 C                    6.0000     0.66247352    -1.27432608     0.00000000
    4 O                    8.0000    -0.22238340    -3.38157718     0.00000000
    5 H                    1.0000    -0.81743964     5.05919457     0.00000000
    6 H                    1.0000     2.29894170     3.49564380     0.00000000
    7 H                    1.0000    -2.88163854     0.83489769     0.00000000
    8 H                    1.0000     2.73843448    -0.98011961     0.00000000

         Total DFT energy =     -191.746872724614

                       DFT Final Molecular Orbital Analysis
                       ------------------------------------

 Vector    4  Occ=2.000000D+00  E=-1.033184D+01  Symmetry=a'

 Vector    5  Occ=2.000000D+00  E=-1.199218D+00  Symmetry=a'

 Vector    6  Occ=2.000000D+00  E=-9.596978D-01  Symmetry=a'

 Vector    7  Occ=2.000000D+00  E=-7.924508D-01  Symmetry=a'

 Vector    8  Occ=2.000000D+00  E=-7.154365D-01  Symmetry=a'

 Vector    9  Occ=2.000000D+00  E=-6.139865D-01  Symmetry=a'

 Vector   10  Occ=2.000000D+00  E=-6.100511D-01  Symmetry=a'

 Vector   11  Occ=2.000000D+00  E=-5.515104D-01  Symmetry=a'

 Vector   12  Occ=2.000000D+00  E=-5.325952D-01  Symmetry=a"

 Vector   13  Occ=2.000000D+00  E=-5.165105D-01  Symmetry=a'

 Vector   14  Occ=2.000000D+00  E=-4.090520D-01  Symmetry=a"

 Vector   15  Occ=2.000000D+00  E=-3.842437D-01  Symmetry=a'

 Vector   16  Occ=0.000000D+00  E= 1.322006D-02  Symmetry=a"

 Vector   17  Occ=0.000000D+00  E= 1.140245D-01  Symmetry=a'

 Vector   18  Occ=0.000000D+00  E= 1.245883D-01  Symmetry=a'

 Vector   19  Occ=0.000000D+00  E= 1.333654D-01  Symmetry=a"

 Vector   20  Occ=0.000000D+00  E= 1.643364D-01  Symmetry=a'

 Vector   21  Occ=0.000000D+00  E= 1.853167D-01  Symmetry=a'

 Vector   22  Occ=0.000000D+00  E= 2.437717D-01  Symmetry=a'

 Vector   23  Occ=0.000000D+00  E= 2.943710D-01  Symmetry=a'

 Vector   24  Occ=0.000000D+00  E= 3.368070D-01  Symmetry=a'

 Vector   25  Occ=0.000000D+00  E= 3.510114D-01  Symmetry=a"

 Vector   26  Occ=0.000000D+00  E= 3.806945D-01  Symmetry=a'

 Vector   27  Occ=0.000000D+00  E= 4.114183D-01  Symmetry=a"

 Vector   28  Occ=0.000000D+00  E= 4.137691D-01  Symmetry=a'

 Vector   29  Occ=0.000000D+00  E= 4.470511D-01  Symmetry=a'

 Vector   30  Occ=0.000000D+00  E= 4.621928D-01  Symmetry=a"

 Vector   31  Occ=0.000000D+00  E= 4.823633D-01  Symmetry=a'

 Vector   32  Occ=0.000000D+00  E= 5.042187D-01  Symmetry=a'

     Multipole analysis of the density
     ---------------------------------

     L   x y z        total         alpha         beta         nuclear
     -   - - -        -----         -----         ----         -------
     0   0 0 0      0.000000    -15.000000    -15.000000     30.000000

     1   1 0 0      0.276644      0.138322      0.138322      0.000000
     1   0 1 0      1.282762      0.641381      0.641381      0.000000
     1   0 0 1      0.000000      0.000000      0.000000      0.000000

     2   2 0 0    -16.181421    -22.832790    -22.832790     29.484160
     2   1 1 0     -0.623696     -0.067131     -0.067131     -0.489433
     2   1 0 1      0.000000      0.000000      0.000000      0.000000
     2   0 2 0    -20.133925   -116.881454   -116.881454    213.628982
     2   0 1 1      0.000000      0.000000      0.000000      0.000000

  Root   1 singlet a"             0.143379303 a.u.                3.9016 eV
     Dipole Oscillator Strength                         0.00027
  Root   2 singlet a'             0.244532851 a.u.                6.6541 eV
     Dipole Oscillator Strength                         0.44581
  Root   3 singlet a"             0.277785685 a.u.                7.5589 eV
     Dipole Oscillator Strength                         0.00007
  Root   4 singlet a"             0.299585527 a.u.                8.1521 eV
     Dipole Oscillator Strength                         0.00028
  Root   5 singlet a"             0.315532897 a.u.                8.5861 eV
     Dipole Oscillator Strength                         0.00263
 Total times  cpu:     5726.6s     wall:     5758.3s
