============================== echo of input deck ==============================
echo
start acr-camb3lyp-cdfit

geometry units bohr
C         -3.4889915040            0.0757243564            0.0000000000
C         -1.1660674990           -0.8921396346            0.0000000000
C          1.0745076249            0.7531195619            0.0000000000
O          3.2306456355           -0.0048697519            0.0000000000
H         -5.1598072439           -1.1007803728            0.0000000000
H         -3.7843301456            2.1030589485            0.0000000000
H         -0.8202431053           -2.9101405740            0.0000000000
H          0.6573804135            2.8079130427            0.0000000000
end

basis spherical
 * library "cc-pVTZ"
end

basis "cd basis"
*  library "DGauss A2 DFT Coulomb Fitting"
end

set int:cando_txs f

dft
 xc xcamb88 1.00 lyp 0.81 vwn_5 0.19 hfexch 1.00
 cam 0.33 cam_alpha 0.19 cam_beta 0.81
# direct
# odft
# mult 1
end
#task dft energy

#property
# center com
# dipole
#end
#task dft property

tddft
 nroots 5
 notriplet
 algorithm 3
end
task tddft energy
================================================================================

 Output coordinates in a.u. (scale by  1.000000000 to convert to a.u.)

  No.       Tag          Charge          X              Y              Z
 ---- ---------------- ---------- -------------- -------------- --------------
    1 C                    6.0000     0.25763286     3.32137763     0.00000000
    2 C                    6.0000    -0.84664484     1.06011528     0.00000000
    3 C                    6.0000     0.66247352    -1.27432608     0.00000000
    4 O                    8.0000    -0.22238340    -3.38157718     0.00000000
    5 H                    1.0000    -0.81743964     5.05919457     0.00000000
    6 H                    1.0000     2.29894170     3.49564380     0.00000000
    7 H                    1.0000    -2.88163854     0.83489769     0.00000000
    8 H                    1.0000     2.73843448    -0.98011961     0.00000000

         Total DFT energy =     -191.750389398221

                       DFT Final Molecular Orbital Analysis
                       ------------------------------------

 Vector    4  Occ=2.000000D+00  E=-1.033013D+01  Symmetry=a'

 Vector    5  Occ=2.000000D+00  E=-1.198252D+00  Symmetry=a'

 Vector    6  Occ=2.000000D+00  E=-9.584499D-01  Symmetry=a'

 Vector    7  Occ=2.000000D+00  E=-7.914508D-01  Symmetry=a'

 Vector    8  Occ=2.000000D+00  E=-7.141668D-01  Symmetry=a'

 Vector    9  Occ=2.000000D+00  E=-6.126247D-01  Symmetry=a'

 Vector   10  Occ=2.000000D+00  E=-6.088978D-01  Symmetry=a'

 Vector   11  Occ=2.000000D+00  E=-5.508957D-01  Symmetry=a'

 Vector   12  Occ=2.000000D+00  E=-5.314691D-01  Symmetry=a"

 Vector   13  Occ=2.000000D+00  E=-5.157047D-01  Symmetry=a'

 Vector   14  Occ=2.000000D+00  E=-4.079499D-01  Symmetry=a"

 Vector   15  Occ=2.000000D+00  E=-3.835418D-01  Symmetry=a'

 Vector   16  Occ=0.000000D+00  E= 1.529409D-02  Symmetry=a"

 Vector   17  Occ=0.000000D+00  E= 1.153575D-01  Symmetry=a'

 Vector   18  Occ=0.000000D+00  E= 1.260861D-01  Symmetry=a'

 Vector   19  Occ=0.000000D+00  E= 1.345051D-01  Symmetry=a"

 Vector   20  Occ=0.000000D+00  E= 1.653939D-01  Symmetry=a'

 Vector   21  Occ=0.000000D+00  E= 1.866808D-01  Symmetry=a'

 Vector   22  Occ=0.000000D+00  E= 2.447822D-01  Symmetry=a'

 Vector   23  Occ=0.000000D+00  E= 2.961079D-01  Symmetry=a'

 Vector   24  Occ=0.000000D+00  E= 3.380385D-01  Symmetry=a'

 Vector   25  Occ=0.000000D+00  E= 3.523717D-01  Symmetry=a"

 Vector   26  Occ=0.000000D+00  E= 3.817513D-01  Symmetry=a'

 Vector   27  Occ=0.000000D+00  E= 4.131099D-01  Symmetry=a"

 Vector   28  Occ=0.000000D+00  E= 4.158058D-01  Symmetry=a'

 Vector   29  Occ=0.000000D+00  E= 4.490724D-01  Symmetry=a'

 Vector   30  Occ=0.000000D+00  E= 4.639842D-01  Symmetry=a"

 Vector   31  Occ=0.000000D+00  E= 4.843702D-01  Symmetry=a'

 Vector   32  Occ=0.000000D+00  E= 5.057446D-01  Symmetry=a'

     Multipole analysis of the density
     ---------------------------------

     L   x y z        total         alpha         beta         nuclear
     -   - - -        -----         -----         ----         -------
     0   0 0 0      0.000000    -15.000000    -15.000000     30.000000

     1   1 0 0      0.280028      0.140014      0.140014      0.000000
     1   0 1 0      1.283865      0.641933      0.641933      0.000000
     1   0 0 1      0.000000      0.000000      0.000000      0.000000

     2   2 0 0    -16.163422    -22.823791    -22.823791     29.484160
     2   1 1 0     -0.621323     -0.065945     -0.065945     -0.489433
     2   1 0 1      0.000000      0.000000      0.000000      0.000000
     2   0 2 0    -20.145949   -116.887465   -116.887465    213.628982
     2   0 1 1      0.000000      0.000000      0.000000      0.000000

  Root   1 singlet a"             0.144573209 a.u.                3.9340 eV
     Dipole Oscillator Strength                         0.00028
  Root   2 singlet a'             0.245408411 a.u.                6.6779 eV
     Dipole Oscillator Strength                         0.44757
  Root   3 singlet a"             0.278912666 a.u.                7.5896 eV
     Dipole Oscillator Strength                         0.00008
  Root   4 singlet a"             0.300525950 a.u.                8.1777 eV
     Dipole Oscillator Strength                         0.00030
  Root   5 singlet a"             0.316868048 a.u.                8.6224 eV
     Dipole Oscillator Strength                         0.00271
 Total times  cpu:     4989.8s     wall:     5009.3s
