============================== echo of input deck ==============================

title "c2h4 test"

start c2h4_dat

echo

#memory stack 500 mb heap 100 mb global 1400 mb noverify

# C1  symmetry: total energy is -77.891420365233
# C2v symmetry: total energy is -77.862506448702
# D2d symmetry: total energy is -77.747117694241

charge 0
geometry autosym units angstrom
zmat
C
C 1 r1
H 1 r2 2 a2
H 1 r2 2 a2 3 so
H 2 r2 1 a2 3 al
H 2 r2 1 a2 5 so
variables
r1 1.451
r2 1.080
a2 121.45
al 90.0
so 180.0
end
#symmetry c2v
end

basis
   * library cc-pvtz
end

scf
  singlet
  vectors input atomic swap 10 8
  rhf
  thresh 1e-10
  print "final vectors analysis"
end

task scf energy

scf
  singlet
  uhf
  thresh 1e-10
end

task scf energy

dft
  cgmin
  xc hfexch
  mult 1
  vectors input atomic swap 10 8
  convergence energy 1d-10
  print "final vectors analysis"
end

task dft energy

dft
  cgmin
  odft
  xc hfexch
  mult 1
end

task dft energy

================================================================================

 Output coordinates in angstroms (scale by  1.889725989 to convert to a.u.)

  No.       Tag          Charge          X              Y              Z
 ---- ---------------- ---------- -------------- -------------- --------------
    1 C                    6.0000     0.00000000     0.00000000    -0.72550000
    2 C                    6.0000    -0.00000000     0.00000000     0.72550000
    3 H                    1.0000    -0.65148822     0.65148822    -1.28899464
    4 H                    1.0000     0.65148822    -0.65148822    -1.28899464
    5 H                    1.0000    -0.65148822    -0.65148822     1.28899464
    6 H                    1.0000     0.65148822     0.65148822     1.28899464

         Total SCF energy =    -77.457589240082
         Total SCF energy =    -77.457589240082

       Multipole analysis of the density wrt the origin
       ------------------------------------------------

     L   x y z        total         alpha         beta         nuclear
     -   - - -        -----         -----         ----         -------
     0   0 0 0     -0.000000     -8.000000     -8.000000     16.000000

     1   1 0 0     -0.000000     -0.000000     -0.000000      0.000000
     1   0 1 0      0.000000      0.000000      0.000000      0.000000
     1   0 0 1     -0.000000     -0.000000     -0.000000      0.000000

     2   2 0 0    -19.503364    -12.783065    -12.783065      6.062766
     2   1 1 0     -0.000000     -0.000000     -0.000000     -0.000000
     2   1 0 1      0.000000      0.000000      0.000000      0.000000
     2   0 2 0    -19.503364    -12.783065    -12.783065      6.062766
     2   0 1 1     -0.000000     -0.000000     -0.000000      0.000000

         Total DFT energy =      -77.457589231734
         Total DFT energy =      -77.457589231734

                    DFT Final Alpha Molecular Orbital Analysis
                    ------------------------------------------

 Vector    1  Occ=1.000000D+00  E=-1.147892D+01  Symmetry=a1

 Vector   51  Occ=0.000000D+00  E= 1.907122D+00  Symmetry=e

 Vector   52  Occ=0.000000D+00  E= 1.907122D+00  Symmetry=e

 Vector   53  Occ=0.000000D+00  E= 2.182800D+00  Symmetry=e

 Vector   54  Occ=0.000000D+00  E= 2.182800D+00  Symmetry=e

 Vector   55  Occ=0.000000D+00  E= 2.194099D+00  Symmetry=a1

 Vector   56  Occ=0.000000D+00  E= 2.583019D+00  Symmetry=e

 Vector   57  Occ=0.000000D+00  E= 2.583019D+00  Symmetry=e

 Vector   58  Occ=0.000000D+00  E= 2.617402D+00  Symmetry=b2

 Vector   59  Occ=0.000000D+00  E= 2.731855D+00  Symmetry=b1

 Vector   60  Occ=0.000000D+00  E= 2.746709D+00  Symmetry=e

 Vector   61  Occ=0.000000D+00  E= 2.746709D+00  Symmetry=e

 Vector   62  Occ=0.000000D+00  E= 2.842121D+00  Symmetry=b2

 Vector   63  Occ=0.000000D+00  E= 2.871983D+00  Symmetry=a1

 Vector   64  Occ=0.000000D+00  E= 2.934285D+00  Symmetry=b1

 Vector   65  Occ=0.000000D+00  E= 2.945996D+00  Symmetry=b2

 Vector   66  Occ=0.000000D+00  E= 2.946720D+00  Symmetry=a2

 Vector   67  Occ=0.000000D+00  E= 3.002181D+00  Symmetry=e

 Vector   68  Occ=0.000000D+00  E= 3.002181D+00  Symmetry=e

 Vector   69  Occ=0.000000D+00  E= 3.059760D+00  Symmetry=a1

 Vector   70  Occ=0.000000D+00  E= 3.106877D+00  Symmetry=e

 Vector   71  Occ=0.000000D+00  E= 3.106877D+00  Symmetry=e

 Vector   72  Occ=0.000000D+00  E= 3.165185D+00  Symmetry=a1

 Vector   73  Occ=0.000000D+00  E= 3.183617D+00  Symmetry=b2

 Vector   74  Occ=0.000000D+00  E= 3.281105D+00  Symmetry=e

 Vector   75  Occ=0.000000D+00  E= 3.281105D+00  Symmetry=e

 Vector   76  Occ=0.000000D+00  E= 3.298319D+00  Symmetry=a2

 Vector   77  Occ=0.000000D+00  E= 3.362092D+00  Symmetry=e

 Vector   78  Occ=0.000000D+00  E= 3.362092D+00  Symmetry=e

 Vector   79  Occ=0.000000D+00  E= 3.464794D+00  Symmetry=b1

 Vector   80  Occ=0.000000D+00  E= 3.510006D+00  Symmetry=a1

 Vector   81  Occ=0.000000D+00  E= 3.514956D+00  Symmetry=b2

 Vector   82  Occ=0.000000D+00  E= 3.638777D+00  Symmetry=e

 Vector   83  Occ=0.000000D+00  E= 3.638777D+00  Symmetry=e

 Vector   84  Occ=0.000000D+00  E= 3.700499D+00  Symmetry=a2

 Vector   85  Occ=0.000000D+00  E= 3.800662D+00  Symmetry=a1

 Vector   86  Occ=0.000000D+00  E= 3.875122D+00  Symmetry=e

 Vector   87  Occ=0.000000D+00  E= 3.875122D+00  Symmetry=e

 Vector   88  Occ=0.000000D+00  E= 3.887842D+00  Symmetry=b2

 Vector   89  Occ=0.000000D+00  E= 3.986142D+00  Symmetry=a1

 Vector   90  Occ=0.000000D+00  E= 4.000263D+00  Symmetry=e

 Vector   91  Occ=0.000000D+00  E= 4.000263D+00  Symmetry=e

 Vector   92  Occ=0.000000D+00  E= 4.048191D+00  Symmetry=b1

 Vector   93  Occ=0.000000D+00  E= 4.095192D+00  Symmetry=e

 Vector   94  Occ=0.000000D+00  E= 4.095192D+00  Symmetry=e

 Vector   95  Occ=0.000000D+00  E= 4.220672D+00  Symmetry=a1

 Vector   96  Occ=0.000000D+00  E= 4.233124D+00  Symmetry=b2

 Vector   97  Occ=0.000000D+00  E= 4.263954D+00  Symmetry=e

 Vector   98  Occ=0.000000D+00  E= 4.263954D+00  Symmetry=e

 Vector   99  Occ=0.000000D+00  E= 4.309756D+00  Symmetry=a2

 Vector  100  Occ=0.000000D+00  E= 4.472774D+00  Symmetry=a1

 Vector  101  Occ=0.000000D+00  E= 4.503851D+00  Symmetry=b2

 Vector  102  Occ=0.000000D+00  E= 4.623299D+00  Symmetry=e

 Vector  103  Occ=0.000000D+00  E= 4.623299D+00  Symmetry=e

 Vector  104  Occ=0.000000D+00  E= 4.751050D+00  Symmetry=b2

 Vector  105  Occ=0.000000D+00  E= 4.753400D+00  Symmetry=e

 Vector  106  Occ=0.000000D+00  E= 4.753400D+00  Symmetry=e

 Vector  107  Occ=0.000000D+00  E= 4.907914D+00  Symmetry=e

 Vector  108  Occ=0.000000D+00  E= 4.907914D+00  Symmetry=e

 Vector  109  Occ=0.000000D+00  E= 5.021621D+00  Symmetry=b1

 Vector  110  Occ=0.000000D+00  E= 5.079946D+00  Symmetry=a1

 Vector  111  Occ=0.000000D+00  E= 5.159156D+00  Symmetry=b2

 Vector  112  Occ=0.000000D+00  E= 5.174688D+00  Symmetry=e

 Vector  113  Occ=0.000000D+00  E= 5.174688D+00  Symmetry=e

 Vector  114  Occ=0.000000D+00  E= 5.229973D+00  Symmetry=a1

 Vector  115  Occ=0.000000D+00  E= 5.284398D+00  Symmetry=a2

 Vector  116  Occ=0.000000D+00  E= 5.551900D+00  Symmetry=b2

 Vector  117  Occ=0.000000D+00  E= 5.598890D+00  Symmetry=a1

 Vector  118  Occ=0.000000D+00  E= 5.885270D+00  Symmetry=e

 Vector  119  Occ=0.000000D+00  E= 5.885270D+00  Symmetry=e

 Vector  120  Occ=0.000000D+00  E= 6.201395D+00  Symmetry=b2

 Vector  121  Occ=0.000000D+00  E= 6.218310D+00  Symmetry=e

 Vector  122  Occ=0.000000D+00  E= 6.218310D+00  Symmetry=e

 Vector  123  Occ=0.000000D+00  E= 6.693580D+00  Symmetry=e

 Vector  124  Occ=0.000000D+00  E= 6.693580D+00  Symmetry=e

 Vector  125  Occ=0.000000D+00  E= 7.123413D+00  Symmetry=a1

 Vector  126  Occ=0.000000D+00  E= 7.813796D+00  Symmetry=b2

 Vector  127  Occ=0.000000D+00  E= 8.045261D+00  Symmetry=a1

 Vector  128  Occ=0.000000D+00  E= 8.299313D+00  Symmetry=b2

 Vector  129  Occ=0.000000D+00  E= 1.778080D+01  Symmetry=b2

 Vector  130  Occ=0.000000D+00  E= 1.818397D+01  Symmetry=a1

 Total times  cpu:        3.4s     wall:        4.0s
