============================== echo of input deck ==============================
echo
start c4h4
title "C4H4 WFN"

geometry nocenter units bohr
symmetry c1
C 0.97775600 -0.97775600 -0.97775600
C -0.97775600 -0.97775600  0.97775600
C -0.97775600  0.97775600 -0.97775600
C 0.97775600  0.97775600  0.97775600
H 2.13806500 -2.13806500 -2.13806500
H -2.13806500 -2.13806500  2.13806500
H -2.13806500  2.13806500 -2.13806500
H 2.13806500  2.13806500  2.13806500
end

BASIS "ao basis" PRINT
#BASIS SET: (4s) -> [2s]
H    S
     18.7311370              0.03349460
      2.8253937              0.23472695
      0.6401217              0.81375733
H    S
      0.1612778              1.00000000
C    S
   3047.5249000              0.0018347
    457.3695100              0.0140373
    103.9486900              0.0688426
     29.2101550              0.2321844
      9.2866630              0.4679413
      3.1639270              0.3623120
C    SP
      7.8682724             -0.1193324              0.0689991
      1.8812885             -0.1608542              0.3164240
      0.5442493              1.1434564              0.7443083
	C    SP
      0.1687144              1.0000000              1.0000000
C    D
      0.8000000              1.0000000
END
scf
 singlet
 rhf
end
property
aimfile
end
task scf property
================================================================================

 Output coordinates in a.u. (scale by  1.000000000 to convert to a.u.)

  No.       Tag          Charge          X              Y              Z
 ---- ---------------- ---------- -------------- -------------- --------------
    1 C                    6.0000     0.97775600    -0.97775600    -0.97775600
    2 C                    6.0000    -0.97775600    -0.97775600     0.97775600
    3 C                    6.0000    -0.97775600     0.97775600    -0.97775600
    4 C                    6.0000     0.97775600     0.97775600     0.97775600
    5 H                    1.0000     2.13806500    -2.13806500    -2.13806500
    6 H                    1.0000    -2.13806500    -2.13806500     2.13806500
    7 H                    1.0000    -2.13806500     2.13806500    -2.13806500
    8 H                    1.0000     2.13806500     2.13806500     2.13806500

         Total SCF energy =   -153.597882760640

 Vector    5  Occ=2.000000D+00  E=-1.296599D+00

 Vector    6  Occ=2.000000D+00  E=-8.053911D-01

 Vector    7  Occ=2.000000D+00  E=-8.053911D-01

 Vector    8  Occ=2.000000D+00  E=-8.053911D-01

 Vector    9  Occ=2.000000D+00  E=-7.096543D-01

 Vector   10  Occ=2.000000D+00  E=-5.340742D-01

 Vector   11  Occ=2.000000D+00  E=-5.340742D-01

 Vector   12  Occ=2.000000D+00  E=-5.340742D-01

 Vector   13  Occ=2.000000D+00  E=-3.317291D-01

 Vector   14  Occ=2.000000D+00  E=-3.317291D-01

 Vector   15  Occ=0.000000D+00  E= 2.669763D-01

 Vector   16  Occ=0.000000D+00  E= 2.941798D-01

 Vector   17  Occ=0.000000D+00  E= 2.941798D-01

 Vector   18  Occ=0.000000D+00  E= 2.941798D-01

 Vector   19  Occ=0.000000D+00  E= 3.453147D-01

 Vector   20  Occ=0.000000D+00  E= 3.453147D-01

 Vector   21  Occ=0.000000D+00  E= 3.453147D-01

 Vector   22  Occ=0.000000D+00  E= 4.027474D-01

 Vector   23  Occ=0.000000D+00  E= 4.027474D-01

 Vector   24  Occ=0.000000D+00  E= 4.027474D-01

 Vector   25  Occ=0.000000D+00  E= 6.408515D-01

       Multipole analysis of the density wrt the origin
       ------------------------------------------------

     L   x y z        total         open         nuclear
     -   - - -        -----         ----         -------
     0   0 0 0     -0.000000      0.000000     28.000000

     1   1 0 0     -0.000000      0.000000      0.000000
     1   0 1 0      0.000000      0.000000      0.000000
     1   0 0 1      0.000000      0.000000      0.000000

     2   2 0 0    -16.808456      0.000000     41.229451
     2   1 1 0     -0.000000      0.000000      0.000000
     2   1 0 1      0.000000      0.000000      0.000000
     2   0 2 0    -16.808456      0.000000     41.229451
     2   0 1 1      0.000000      0.000000      0.000000

 Total times  cpu:        0.4s     wall:        0.4s
