============================== echo of input deck ==============================
# $Id$
echo

title "c60 with ECPs"

start c60

geometry
  symmetry Ih
  C -1.2287651 0.0 3.3143121   # bonds = 1.4445 and 1.3945 Angstrom
end

basis
  C library SBKJC_VDZ_ECP
end

ecp
  C library SBKJC_ECP
end

task scf
================================================================================

 Output coordinates in angstroms (scale by  1.889725989 to convert to a.u.)

  No.       Tag          Charge          X              Y              Z
 ---- ---------------- ---------- -------------- -------------- --------------
    1 C                    6.0000    -1.22876510    -0.00000000     3.31431210
    2 C                    6.0000    -0.37970930    -1.16862506     3.31431210
    3 C                    6.0000     0.99409185    -0.72225000     3.31431210
    4 C                    6.0000     0.99409185     0.72225000     3.31431210
    5 C                    6.0000    -0.37970930     1.16862506     3.31431210
    6 C                    6.0000     1.57397808    -2.58806202     1.82182775
    7 C                    6.0000     2.33339667    -2.58806202     0.59306265
    8 C                    6.0000     3.18245248    -1.41943696     0.59306265
    9 C                    6.0000     2.94777922    -0.69718696     1.82182775
   10 C                    6.0000     1.95368738    -1.41943696     2.58124635
   11 C                    6.0000     2.79459970    -1.16862506    -1.82182775
   12 C                    6.0000     2.41489040    -0.00000000    -2.58124635
   13 C                    6.0000     2.79459970     1.16862506    -1.82182775
   14 C                    6.0000     3.40898225     0.72225000    -0.59306265
   15 C                    6.0000     3.40898225    -0.72225000    -0.59306265
   16 C                    6.0000     0.74624217     2.29669725    -2.58124635
   17 C                    6.0000    -2.33339667    -2.58806202    -0.59306265
   18 C                    6.0000    -3.18245248    -1.41943696    -0.59306265
   19 C                    6.0000    -2.94777922    -0.69718696    -1.82182775
   20 C                    6.0000    -1.95368738    -1.41943696    -2.58124635
   21 C                    6.0000    -1.57397808    -2.58806202    -1.82182775
   22 C                    6.0000    -3.18245248     1.41943696    -0.59306265
   23 C                    6.0000    -2.33339667     2.58806202    -0.59306265
   24 C                    6.0000    -1.57397808     2.58806202    -1.82182775
   25 C                    6.0000    -1.95368738     1.41943696    -2.58124635
   26 C                    6.0000    -2.94777922     0.69718696    -1.82182775
   27 C                    6.0000     0.36653288     3.46532231    -0.59306265
   28 C                    6.0000     1.74033402     3.01894726    -0.59306265
   29 C                    6.0000     1.97500727     2.29669725    -1.82182775
   30 C                    6.0000    -0.24784967     3.01894726    -1.82182775
   31 C                    6.0000    -0.74624217    -2.29669725     2.58124635
   32 C                    6.0000    -1.97500727    -2.29669725     1.82182775
   33 C                    6.0000    -1.74033402    -3.01894726     0.59306265
   34 C                    6.0000    -0.36653288    -3.46532231     0.59306265
   35 C                    6.0000     0.24784967    -3.01894726     1.82182775
   36 C                    6.0000    -0.99409185     0.72225000    -3.31431210
   37 C                    6.0000     0.37970930     1.16862506    -3.31431210
   38 C                    6.0000     1.22876510     0.00000000    -3.31431210
   39 C                    6.0000     0.37970930    -1.16862506    -3.31431210
   40 C                    6.0000    -0.99409185    -0.72225000    -3.31431210
   41 C                    6.0000    -1.97500727     2.29669725     1.82182775
   42 C                    6.0000    -0.74624217     2.29669725     2.58124635
   43 C                    6.0000     0.24784967     3.01894726     1.82182775
   44 C                    6.0000    -0.36653288     3.46532231     0.59306265
   45 C                    6.0000    -1.74033402     3.01894726     0.59306265
   46 C                    6.0000     1.95368738     1.41943696     2.58124635
   47 C                    6.0000     2.94777922     0.69718696     1.82182775
   48 C                    6.0000     3.18245248     1.41943696     0.59306265
   49 C                    6.0000     2.33339667     2.58806202     0.59306265
   50 C                    6.0000     1.57397808     2.58806202     1.82182775
   51 C                    6.0000    -2.79459970    -1.16862506     1.82182775
   52 C                    6.0000    -2.41489040     0.00000000     2.58124635
   53 C                    6.0000    -2.79459970     1.16862506     1.82182775
   54 C                    6.0000    -3.40898225     0.72225000     0.59306265
   55 C                    6.0000    -3.40898225    -0.72225000     0.59306265
   56 C                    6.0000     0.36653288    -3.46532231    -0.59306265
   57 C                    6.0000    -0.24784967    -3.01894726    -1.82182775
   58 C                    6.0000     0.74624217    -2.29669725    -2.58124635
   59 C                    6.0000     1.97500727    -2.29669725    -1.82182775
   60 C                    6.0000     1.74033402    -3.01894726    -0.59306265

         Total SCF energy =   -327.868645020642

 Vector  120  Occ=2.000000D+00  E=-3.093970D-01  Symmetry=hu

 Vector  121  Occ=0.000000D+00  E=-4.743654D-02  Symmetry=t1u

 Vector  122  Occ=0.000000D+00  E=-4.743654D-02  Symmetry=t1u

 Vector  123  Occ=0.000000D+00  E=-4.743654D-02  Symmetry=t1u

 Vector  124  Occ=0.000000D+00  E= 1.460368D-02  Symmetry=t1g

 Vector  125  Occ=0.000000D+00  E= 1.460368D-02  Symmetry=t1g

 Vector  126  Occ=0.000000D+00  E= 1.460368D-02  Symmetry=t1g

 Vector  127  Occ=0.000000D+00  E= 7.804550D-02  Symmetry=t2u

 Vector  128  Occ=0.000000D+00  E= 7.804550D-02  Symmetry=t2u

 Vector  129  Occ=0.000000D+00  E= 7.804550D-02  Symmetry=t2u

 Vector  130  Occ=0.000000D+00  E= 7.962288D-02  Symmetry=hg

 Vector  131  Occ=0.000000D+00  E= 7.962288D-02  Symmetry=hg

 Vector  132  Occ=0.000000D+00  E= 7.962288D-02  Symmetry=hg

 Vector  133  Occ=0.000000D+00  E= 7.962288D-02  Symmetry=hg

 Vector  134  Occ=0.000000D+00  E= 7.962288D-02  Symmetry=hg

 Vector  135  Occ=0.000000D+00  E= 1.687924D-01  Symmetry=hu

 Vector  136  Occ=0.000000D+00  E= 1.687924D-01  Symmetry=hu

 Vector  137  Occ=0.000000D+00  E= 1.687924D-01  Symmetry=hu

 Vector  138  Occ=0.000000D+00  E= 1.687924D-01  Symmetry=hu

 Vector  139  Occ=0.000000D+00  E= 1.687924D-01  Symmetry=hu

 Vector  140  Occ=0.000000D+00  E= 2.000033D-01  Symmetry=gg

 Vector  141  Occ=0.000000D+00  E= 2.000033D-01  Symmetry=gg

 Vector  142  Occ=0.000000D+00  E= 2.000033D-01  Symmetry=gg

 Vector  143  Occ=0.000000D+00  E= 2.000033D-01  Symmetry=gg

 Vector  144  Occ=0.000000D+00  E= 2.428921D-01  Symmetry=gu

 Vector  145  Occ=0.000000D+00  E= 2.428921D-01  Symmetry=gu

 Vector  146  Occ=0.000000D+00  E= 2.428921D-01  Symmetry=gu

 Vector  147  Occ=0.000000D+00  E= 2.428921D-01  Symmetry=gu

 Vector  148  Occ=0.000000D+00  E= 2.720058D-01  Symmetry=t2g

 Vector  149  Occ=0.000000D+00  E= 2.720058D-01  Symmetry=t2g

 Vector  150  Occ=0.000000D+00  E= 2.720058D-01  Symmetry=t2g

 Vector  151  Occ=0.000000D+00  E= 2.814151D-01  Symmetry=t1u

 Vector  152  Occ=0.000000D+00  E= 2.814151D-01  Symmetry=t1u

 Vector  153  Occ=0.000000D+00  E= 2.814151D-01  Symmetry=t1u

 Vector  154  Occ=0.000000D+00  E= 2.918427D-01  Symmetry=hg

 Vector  155  Occ=0.000000D+00  E= 2.918427D-01  Symmetry=hg

 Vector  156  Occ=0.000000D+00  E= 2.918427D-01  Symmetry=hg

 Vector  157  Occ=0.000000D+00  E= 2.918427D-01  Symmetry=hg

 Vector  158  Occ=0.000000D+00  E= 2.918427D-01  Symmetry=hg

 Vector  159  Occ=0.000000D+00  E= 3.069438D-01  Symmetry=t2u

 Vector  160  Occ=0.000000D+00  E= 3.069438D-01  Symmetry=t2u

 Vector  161  Occ=0.000000D+00  E= 3.069438D-01  Symmetry=t2u

 Vector  162  Occ=0.000000D+00  E= 3.217487D-01  Symmetry=gu

 Vector  163  Occ=0.000000D+00  E= 3.217487D-01  Symmetry=gu

 Vector  164  Occ=0.000000D+00  E= 3.217487D-01  Symmetry=gu

 Vector  165  Occ=0.000000D+00  E= 3.217487D-01  Symmetry=gu

 Vector  166  Occ=0.000000D+00  E= 3.333410D-01  Symmetry=ag

 Vector  167  Occ=0.000000D+00  E= 3.360933D-01  Symmetry=gg

 Vector  168  Occ=0.000000D+00  E= 3.360933D-01  Symmetry=gg

 Vector  169  Occ=0.000000D+00  E= 3.360933D-01  Symmetry=gg

 Vector  170  Occ=0.000000D+00  E= 3.360933D-01  Symmetry=gg

 Vector  171  Occ=0.000000D+00  E= 3.678151D-01  Symmetry=t1g

 Vector  172  Occ=0.000000D+00  E= 3.678151D-01  Symmetry=t1g

 Vector  173  Occ=0.000000D+00  E= 3.678151D-01  Symmetry=t1g

 Vector  174  Occ=0.000000D+00  E= 3.773096D-01  Symmetry=hg

 Vector  175  Occ=0.000000D+00  E= 3.773096D-01  Symmetry=hg

 Vector  176  Occ=0.000000D+00  E= 3.773096D-01  Symmetry=hg

 Vector  177  Occ=0.000000D+00  E= 3.773096D-01  Symmetry=hg

 Vector  178  Occ=0.000000D+00  E= 3.773096D-01  Symmetry=hg

 Vector  179  Occ=0.000000D+00  E= 4.145610D-01  Symmetry=t1u

 Vector  180  Occ=0.000000D+00  E= 4.145610D-01  Symmetry=t1u

 Vector  181  Occ=0.000000D+00  E= 4.145610D-01  Symmetry=t1u

 Vector  182  Occ=0.000000D+00  E= 4.181015D-01  Symmetry=t2u

 Vector  183  Occ=0.000000D+00  E= 4.181015D-01  Symmetry=t2u

 Vector  184  Occ=0.000000D+00  E= 4.181015D-01  Symmetry=t2u

 Vector  185  Occ=0.000000D+00  E= 4.246047D-01  Symmetry=t1u

 Vector  186  Occ=0.000000D+00  E= 4.246047D-01  Symmetry=t1u

 Vector  187  Occ=0.000000D+00  E= 4.246047D-01  Symmetry=t1u

 Vector  188  Occ=0.000000D+00  E= 4.818201D-01  Symmetry=ag

 Vector  189  Occ=0.000000D+00  E= 4.830315D-01  Symmetry=hg

 Vector  190  Occ=0.000000D+00  E= 4.830315D-01  Symmetry=hg

 Vector  191  Occ=0.000000D+00  E= 4.830315D-01  Symmetry=hg

 Vector  192  Occ=0.000000D+00  E= 4.830315D-01  Symmetry=hg

 Vector  193  Occ=0.000000D+00  E= 4.830315D-01  Symmetry=hg

 Vector  194  Occ=0.000000D+00  E= 4.873158D-01  Symmetry=hu

 Vector  195  Occ=0.000000D+00  E= 4.873158D-01  Symmetry=hu

 Vector  196  Occ=0.000000D+00  E= 4.873158D-01  Symmetry=hu

 Vector  197  Occ=0.000000D+00  E= 4.873158D-01  Symmetry=hu

 Vector  198  Occ=0.000000D+00  E= 4.873158D-01  Symmetry=hu

 Vector  199  Occ=0.000000D+00  E= 5.108896D-01  Symmetry=hg

       Multipole analysis of the density wrt the origin
       ------------------------------------------------

     L   x y z        total         open         nuclear
     -   - - -        -----         ----         -------
     0   0 0 0      0.000000      0.000000    240.000000

     1   1 0 0     -0.000000      0.000000     -0.000000
     1   0 1 0     -0.000000      0.000000      0.000000
     1   0 0 1      0.000000      0.000000      0.000000

     2   2 0 0   -268.727986      0.000000   3569.501148
     2   1 1 0     -0.000000      0.000000      0.000000
     2   1 0 1     -0.000000      0.000000     -0.000000
     2   0 2 0   -268.727986      0.000000   3569.501148
     2   0 1 1      0.000000      0.000000     -0.000000

 Total times  cpu:       22.7s     wall:       22.9s
