============================== echo of input deck ==============================
echo

title "carbon"

start carbon_fon

geometry units angstrom nocenter
symmetry c1
  C   0.0 0.0 0.0
end

basis
  * library 6-31G
end

scf
 direct
end

charge 0

dft
direct
grid xfine
convergence energy 1d-8
XC pbe0
fon partial 3 electrons 1.8 filled 2
end

#set dft:debugfon .true.

task dft energy

dft
odft
fon alpha partial 3 electrons 0.9 filled 2
fon beta partial 3 electrons 0.9 filled 2
end

task dft energy

dft
fon partial 6 electrons 1.8 filled 4
end

relativistic
 zora
end

task sodft energy

================================================================================

 Output coordinates in angstroms (scale by  1.889725989 to convert to a.u.)

  No.       Tag          Charge          X              Y              Z
 ---- ---------------- ---------- -------------- -------------- --------------
    1 C                    6.0000     0.00000000     0.00000000     0.00000000

         Total DFT energy =      -37.623069421744

 Vector    1  Occ=2.000000D+00  E=-1.048676D+01

 Vector    2  Occ=2.000000D+00  E=-6.461713D-01

 Vector    3  Occ=6.000000D-01  E=-2.397767D-01

 Vector    4  Occ=6.000000D-01  E=-2.397767D-01

 Vector    5  Occ=6.000000D-01  E=-2.397767D-01

 Vector    6  Occ=0.000000D+00  E= 4.798802D-01

 Vector    7  Occ=0.000000D+00  E= 4.798802D-01

 Vector    8  Occ=0.000000D+00  E= 4.798802D-01

 Vector    9  Occ=0.000000D+00  E= 5.320112D-01

         Total DFT energy =      -37.623069421809

 Vector    1  Occ=1.000000D+00  E=-1.048676D+01

 Vector    2  Occ=1.000000D+00  E=-6.461716D-01

 Vector    3  Occ=3.000000D-01  E=-2.397771D-01

 Vector    4  Occ=3.000000D-01  E=-2.397770D-01

 Vector    5  Occ=3.000000D-01  E=-2.397770D-01

 Vector    6  Occ=0.000000D+00  E= 4.798799D-01

 Vector    7  Occ=0.000000D+00  E= 4.798799D-01

 Vector    8  Occ=0.000000D+00  E= 4.798799D-01

 Vector    9  Occ=0.000000D+00  E= 5.320109D-01

 Vector    1  Occ=1.000000D+00  E=-1.048676D+01

 Vector    2  Occ=1.000000D+00  E=-6.461716D-01

 Vector    3  Occ=3.000000D-01  E=-2.397771D-01

 Vector    4  Occ=3.000000D-01  E=-2.397770D-01

 Vector    5  Occ=3.000000D-01  E=-2.397770D-01

 Vector    6  Occ=0.000000D+00  E= 4.798799D-01

 Vector    7  Occ=0.000000D+00  E= 4.798799D-01

 Vector    8  Occ=0.000000D+00  E= 4.798799D-01

 Vector    9  Occ=0.000000D+00  E= 5.320109D-01

                       DFT Final Molecular Orbital Analysis
                       ------------------------------------

 Vector    1  Occ=1.000000D+00  E=-1.048676D+01

 Vector    2  Occ=1.000000D+00  E=-1.048676D+01

 Vector    3  Occ=1.000000D+00  E=-6.461714D-01

 Vector    4  Occ=1.000000D+00  E=-6.461714D-01

 Vector    5  Occ=3.000000D-01  E=-2.397768D-01

 Vector    6  Occ=3.000000D-01  E=-2.397768D-01

 Vector    7  Occ=3.000000D-01  E=-2.397768D-01

 Vector    8  Occ=3.000000D-01  E=-2.397768D-01

 Vector    9  Occ=3.000000D-01  E=-2.397768D-01

 Vector   10  Occ=3.000000D-01  E=-2.397768D-01

 Vector   11  Occ=0.000000D+00  E= 9.798801D-01

 Vector   12  Occ=0.000000D+00  E= 9.798801D-01

 Vector   13  Occ=0.000000D+00  E= 9.798801D-01

 Vector   14  Occ=0.000000D+00  E= 9.798801D-01

 Vector   15  Occ=0.000000D+00  E= 9.798801D-01

 Vector   16  Occ=0.000000D+00  E= 9.798801D-01

 Vector   17  Occ=0.000000D+00  E= 1.032011D+00

 Vector   18  Occ=0.000000D+00  E= 1.032011D+00

 Total times  cpu:        0.6s     wall:        1.0s
