 Output coordinates in angstroms (scale by  1.889725989 to convert to a.u.)

  No.       Tag          Charge          X              Y              Z
 ---- ---------------- ---------- -------------- -------------- --------------
    1 C                    6.0000    -3.00000000     0.00000000     0.66349300
    2 C                    6.0000    -3.00000000     0.00000000    -0.66349300
    3 H                    1.0000    -3.00000000     0.92250300     1.23644600
    4 H                    1.0000    -3.00000000    -0.92250300     1.23644600
    5 H                    1.0000    -3.00000000    -0.92250300    -1.23644600
    6 H                    1.0000    -3.00000000     0.92250300    -1.23644600
    7 C                    6.0000     1.00000000     0.00000000     0.66090500
    8 C                    6.0000     1.00000000     0.00000000    -0.66090500
    9 F                    9.0000     1.00000000     1.10386600     1.38673200
   10 F                    9.0000     1.00000000    -1.10386600     1.38673200
   11 F                    9.0000     1.00000000    -1.10386600    -1.38673200
   12 F                    9.0000     1.00000000     1.10386600    -1.38673200

         Total DFT energy =      -78.593236840827
         Total DFT energy =     -475.536314348277
         Total DFT energy =     -554.130239899150
         Total DFT energy =     -553.777990828688

                    DFT Final Alpha Molecular Orbital Analysis
                    ------------------------------------------

 Vector    1  Occ=1.000000D+00  E=-2.475212D+01

 Vector   85  Occ=0.000000D+00  E= 6.823564D-01

 Vector   86  Occ=0.000000D+00  E= 6.842091D-01

 Vector   87  Occ=0.000000D+00  E= 7.636409D-01

 Vector   88  Occ=0.000000D+00  E= 8.385862D-01

 Vector   89  Occ=0.000000D+00  E= 8.456117D-01

 Vector   90  Occ=0.000000D+00  E= 8.497065D-01

 Vector   91  Occ=0.000000D+00  E= 8.506798D-01

 Vector   92  Occ=0.000000D+00  E= 9.137114D-01

 Vector   93  Occ=0.000000D+00  E= 9.815506D-01

 Vector   94  Occ=0.000000D+00  E= 9.973250D-01

 Vector   95  Occ=0.000000D+00  E= 1.017272D+00

 Vector   96  Occ=0.000000D+00  E= 1.052725D+00

 Vector   97  Occ=0.000000D+00  E= 1.066751D+00

 Vector   98  Occ=0.000000D+00  E= 1.081030D+00

 Vector   99  Occ=0.000000D+00  E= 1.131311D+00

 Vector  100  Occ=0.000000D+00  E= 1.153553D+00

 Vector  101  Occ=0.000000D+00  E= 1.205641D+00

 Vector  102  Occ=0.000000D+00  E= 1.255074D+00

 Vector  103  Occ=0.000000D+00  E= 1.282229D+00

 Vector  104  Occ=0.000000D+00  E= 1.300485D+00

 Vector  105  Occ=0.000000D+00  E= 1.351193D+00

 Vector  106  Occ=0.000000D+00  E= 1.356092D+00

 Vector  107  Occ=0.000000D+00  E= 1.378916D+00

 Vector  108  Occ=0.000000D+00  E= 1.391666D+00

 Vector  109  Occ=0.000000D+00  E= 1.393448D+00

 Vector  110  Occ=0.000000D+00  E= 1.397636D+00

 Vector  111  Occ=0.000000D+00  E= 1.409303D+00

 Vector  112  Occ=0.000000D+00  E= 1.410405D+00

 Vector  113  Occ=0.000000D+00  E= 1.410617D+00

 Vector  114  Occ=0.000000D+00  E= 1.455699D+00

 Vector  115  Occ=0.000000D+00  E= 1.470963D+00

 Vector  116  Occ=0.000000D+00  E= 1.484807D+00

 Vector  117  Occ=0.000000D+00  E= 1.498404D+00

 Vector  118  Occ=0.000000D+00  E= 1.511196D+00

 Vector  119  Occ=0.000000D+00  E= 1.568790D+00

 Vector  120  Occ=0.000000D+00  E= 1.577611D+00

 Vector  121  Occ=0.000000D+00  E= 1.580354D+00

 Vector  122  Occ=0.000000D+00  E= 1.586062D+00

 Vector  123  Occ=0.000000D+00  E= 1.600157D+00

 Vector  124  Occ=0.000000D+00  E= 1.608308D+00

 Vector  125  Occ=0.000000D+00  E= 1.611698D+00

 Vector  126  Occ=0.000000D+00  E= 1.634409D+00

 Vector  127  Occ=0.000000D+00  E= 1.706908D+00

 Vector  128  Occ=0.000000D+00  E= 1.750378D+00

 Vector  129  Occ=0.000000D+00  E= 1.750934D+00

 Vector  130  Occ=0.000000D+00  E= 1.755571D+00

 Vector  131  Occ=0.000000D+00  E= 1.784332D+00

 Vector  132  Occ=0.000000D+00  E= 1.818843D+00

 Vector  133  Occ=0.000000D+00  E= 1.871359D+00

 Vector  134  Occ=0.000000D+00  E= 1.953863D+00

 Vector  135  Occ=0.000000D+00  E= 1.954170D+00

 Vector  136  Occ=0.000000D+00  E= 1.983552D+00

 Vector  137  Occ=0.000000D+00  E= 1.992055D+00

 Vector  138  Occ=0.000000D+00  E= 2.056335D+00

 Vector  139  Occ=0.000000D+00  E= 2.088369D+00

 Vector  140  Occ=0.000000D+00  E= 2.093060D+00

 Vector  141  Occ=0.000000D+00  E= 2.162746D+00

 Vector  142  Occ=0.000000D+00  E= 2.173897D+00

 Vector  143  Occ=0.000000D+00  E= 2.214331D+00

 Vector  144  Occ=0.000000D+00  E= 2.379307D+00

 Vector  145  Occ=0.000000D+00  E= 2.440591D+00

 Vector  146  Occ=0.000000D+00  E= 2.456830D+00

 Vector  147  Occ=0.000000D+00  E= 2.459913D+00

 Vector  148  Occ=0.000000D+00  E= 2.573809D+00

 Vector  149  Occ=0.000000D+00  E= 2.656847D+00

 Vector  150  Occ=0.000000D+00  E= 2.760834D+00

 Vector  151  Occ=0.000000D+00  E= 2.788915D+00

 Vector  152  Occ=0.000000D+00  E= 2.898164D+00

 Vector  153  Occ=0.000000D+00  E= 2.931051D+00

 Vector  154  Occ=0.000000D+00  E= 3.038319D+00

 Vector  155  Occ=0.000000D+00  E= 3.065955D+00

 Vector  156  Occ=0.000000D+00  E= 3.225881D+00

 Vector  157  Occ=0.000000D+00  E= 4.110713D+00

 Vector  158  Occ=0.000000D+00  E= 4.225821D+00

 Vector  159  Occ=0.000000D+00  E= 4.324845D+00

 Vector  160  Occ=0.000000D+00  E= 4.534086D+00

 Vector  161  Occ=0.000000D+00  E= 5.261945D+00

 Vector  162  Occ=0.000000D+00  E= 5.451189D+00

 Vector  163  Occ=0.000000D+00  E= 5.833242D+00

 Vector  164  Occ=0.000000D+00  E= 6.583989D+00

     Multipole analysis of the density
     ---------------------------------

     L   x y z        total         alpha         beta         nuclear
     -   - - -        -----         -----         ----         -------
     0   0 0 0     -0.000000    -32.000000    -32.000000     64.000000

     1   1 0 0     -7.539553      0.209380     -7.748933      0.000000
     1   0 1 0      0.000580     -0.000048      0.000629      0.000000
     1   0 0 1      0.000139     -0.000024      0.000163      0.000000

     2   2 0 0    -14.204375   -359.210378   -340.638345    685.644348
     2   1 1 0      0.001496     -0.000039      0.001535      0.000000
     2   1 0 1      0.000551     -0.000055      0.000606      0.000000
     2   0 2 0    -41.670711   -100.322203   -110.155476    168.806968
     2   0 1 1     -0.000075      0.000002     -0.000077      0.000000

 Total times  cpu:       49.6s     wall:       50.3s
