============================== echo of input deck ==============================
echo

start ch2_props4_bp

title ch2_props4_bp

memory total 800 stack 400 heap 50 global 350 mb

geometry noautoz units angstrom nocenter
symmetry c1
 C     -0.00589147     +0.04720885     +0.01050160
 H     +0.69831687     +0.86392831     -0.10575361
 H     -1.02419158     -0.06390043     +0.36725854
end

basis
"*" library 6-311G*
end

charge 0

property
 efieldgradZ4
 gshift
 hyperfine
 shielding
end

relativistic
 zora on
 zora:cutoff_NMR 1d-8
 zora:cutoff 1d-30
end

set dft:tol_rho 1d-30
set int:acc_std 1d-32
set int:cando_txs f
set dft:job_grid_acc 1d-20

dft
 odft
 mult 3
 grid xfine
 direct
 xc becke88 perdew86
 convergence energy 1e-8 diis 80 ncyds 80 damp 0
end

task dft property
================================================================================

 Output coordinates in angstroms (scale by  1.889725989 to convert to a.u.)

  No.       Tag          Charge          X              Y              Z
 ---- ---------------- ---------- -------------- -------------- --------------
    1 C                    6.0000    -0.00589147     0.04720885     0.01050160
    2 H                    1.0000     0.69831687     0.86392831    -0.10575361
    3 H                    1.0000    -1.02419158    -0.06390043     0.36725854

         Total DFT energy =      -39.177318716808

                    DFT Final Alpha Molecular Orbital Analysis
                    ------------------------------------------

 Vector    1  Occ=1.000000D+00  E=-9.948333D+00

 Vector    2  Occ=1.000000D+00  E=-6.135652D-01

 Vector    3  Occ=1.000000D+00  E=-4.135261D-01

 Vector    4  Occ=1.000000D+00  E=-2.368504D-01

 Vector    5  Occ=1.000000D+00  E=-2.058843D-01

 Vector    6  Occ=0.000000D+00  E= 3.771730D-02

 Vector    7  Occ=0.000000D+00  E= 1.001822D-01

 Vector    8  Occ=0.000000D+00  E= 2.318720D-01

 Vector    9  Occ=0.000000D+00  E= 3.313417D-01

 Vector   10  Occ=0.000000D+00  E= 3.607847D-01

 Vector   11  Occ=0.000000D+00  E= 3.609106D-01

 Vector   12  Occ=0.000000D+00  E= 5.434468D-01

 Vector   13  Occ=0.000000D+00  E= 5.569232D-01

 Vector   14  Occ=0.000000D+00  E= 1.175687D+00

 Vector   15  Occ=0.000000D+00  E= 1.205399D+00

 Vector   16  Occ=0.000000D+00  E= 1.208480D+00

 Vector   17  Occ=0.000000D+00  E= 1.405005D+00

 Vector   18  Occ=0.000000D+00  E= 1.422403D+00

 Vector   19  Occ=0.000000D+00  E= 2.138847D+00

 Vector   20  Occ=0.000000D+00  E= 2.250464D+00

 Vector   21  Occ=0.000000D+00  E= 2.467510D+00

 Vector   22  Occ=0.000000D+00  E= 2.513972D+00

 Vector   23  Occ=0.000000D+00  E= 2.860478D+00

 Vector   24  Occ=0.000000D+00  E= 2.942012D+00

 Vector   25  Occ=0.000000D+00  E= 2.588604D+01

 Vector    1  Occ=1.000000D+00  E=-9.920880D+00

 Vector    2  Occ=1.000000D+00  E=-5.506307D-01

 Vector    3  Occ=1.000000D+00  E=-3.945737D-01

 Vector    4  Occ=0.000000D+00  E=-1.100759D-01

 Vector    5  Occ=0.000000D+00  E=-8.574690D-02

 Vector    6  Occ=0.000000D+00  E= 5.671658D-02

 Vector    7  Occ=0.000000D+00  E= 1.105481D-01

 Vector    8  Occ=0.000000D+00  E= 2.629599D-01

 Vector    9  Occ=0.000000D+00  E= 3.628866D-01

 Vector   10  Occ=0.000000D+00  E= 4.512173D-01

 Vector   11  Occ=0.000000D+00  E= 4.537898D-01

 Vector   12  Occ=0.000000D+00  E= 5.683802D-01

 Vector   13  Occ=0.000000D+00  E= 6.061370D-01

 Vector   14  Occ=0.000000D+00  E= 1.249492D+00

 Vector   15  Occ=0.000000D+00  E= 1.346448D+00

 Vector   16  Occ=0.000000D+00  E= 1.355671D+00

 Vector   17  Occ=0.000000D+00  E= 1.461544D+00

 Vector   18  Occ=0.000000D+00  E= 1.479087D+00

 Vector   19  Occ=0.000000D+00  E= 2.153520D+00

 Vector   20  Occ=0.000000D+00  E= 2.282808D+00

 Vector   21  Occ=0.000000D+00  E= 2.584328D+00

 Vector   22  Occ=0.000000D+00  E= 2.638688D+00

 Vector   23  Occ=0.000000D+00  E= 2.934859D+00

 Vector   24  Occ=0.000000D+00  E= 2.975849D+00

 Vector   25  Occ=0.000000D+00  E= 2.593458D+01

     Multipole analysis of the density
     ---------------------------------

     L   x y z        total         alpha         beta         nuclear
     -   - - -        -----         -----         ----         -------
     0   0 0 0     -0.000000     -5.000000     -3.000000      8.000000

     1   1 0 0     -0.102996      0.200507      0.379110     -0.682613
     1   0 1 0      0.231419     -0.771398     -1.044287      2.047104
     1   0 0 1      0.078871     -0.210123     -0.324250      0.613244

     2   2 0 0     -4.683157     -5.986660     -4.184591      5.488094
     2   1 1 0      0.571698     -0.584065     -1.226399      2.382161
     2   1 0 1     -0.427990      0.382712      0.797576     -1.608278
     2   0 2 0     -5.340480     -5.321632     -2.746525      2.727677
     2   0 1 1     -0.074909      0.101400      0.223139     -0.399448

      Atom:    1  C
      Atom:    2  H
      Atom:    3  H
      Atom:    1  C
           isotropic =     131.4861
      Atom:    2  H
           isotropic =      30.3530
      Atom:    3  H
           isotropic =      30.3520
           isotropic =       0.1956
 Total times  cpu:       44.6s     wall:       44.7s
