============================== echo of input deck ==============================
echo
title "M06-HF/6-31+G* CH3 force "

start ch3

geometry
     C     0.000000    0.000000    0.000000
     H     0.000000    1.078410    0.000000
     H     0.933930   -0.539205    0.000000
     H    -0.933930   -0.539205    0.000000
end

basis
* library 6-31+G*
end

dft
xc  m06-hf
mult 2
grid fine
end

task dft  gradient
================================================================================

 Output coordinates in angstroms (scale by  1.889725989 to convert to a.u.)

  No.       Tag          Charge          X              Y              Z
 ---- ---------------- ---------- -------------- -------------- --------------
    1 C                    6.0000     0.00000000     0.00000000     0.00000000
    2 H                    1.0000     0.76255084     0.76255084     0.00000000
    3 H                    1.0000     0.27911298    -1.04166382     0.00000000
    4 H                    1.0000    -1.04166382     0.27911298     0.00000000

         Total DFT energy =      -39.814436840933

                    DFT Final Alpha Molecular Orbital Analysis
                    ------------------------------------------

 Vector    1  Occ=1.000000D+00  E=-1.098009D+01  Symmetry=a1'

 Vector    2  Occ=1.000000D+00  E=-8.821812D-01  Symmetry=a1'

 Vector    3  Occ=1.000000D+00  E=-5.880816D-01  Symmetry=e'

 Vector    4  Occ=1.000000D+00  E=-5.880816D-01  Symmetry=e'

 Vector    5  Occ=1.000000D+00  E=-3.418895D-01  Symmetry=a2"

 Vector    6  Occ=0.000000D+00  E= 6.184715D-02  Symmetry=a1'

 Vector    7  Occ=0.000000D+00  E= 7.691879D-02  Symmetry=e'

 Vector    8  Occ=0.000000D+00  E= 7.691879D-02  Symmetry=e'

 Vector    9  Occ=0.000000D+00  E= 1.101507D-01  Symmetry=a2"

 Vector   10  Occ=0.000000D+00  E= 2.938823D-01  Symmetry=e'

 Vector   11  Occ=0.000000D+00  E= 2.938823D-01  Symmetry=e'

 Vector   12  Occ=0.000000D+00  E= 3.013028D-01  Symmetry=a1'

 Vector   13  Occ=0.000000D+00  E= 7.216768D-01  Symmetry=e'

 Vector   14  Occ=0.000000D+00  E= 7.216768D-01  Symmetry=e'

 Vector   15  Occ=0.000000D+00  E= 7.420040D-01  Symmetry=a2"

 Vector   16  Occ=0.000000D+00  E= 8.732257D-01  Symmetry=a1'

 Vector   17  Occ=0.000000D+00  E= 1.110893D+00  Symmetry=e'

 Vector   18  Occ=0.000000D+00  E= 1.110893D+00  Symmetry=e'

 Vector   19  Occ=0.000000D+00  E= 1.139326D+00  Symmetry=a1'

 Vector   20  Occ=0.000000D+00  E= 1.737730D+00  Symmetry=e"

 Vector   21  Occ=0.000000D+00  E= 1.737730D+00  Symmetry=e"

 Vector   22  Occ=0.000000D+00  E= 2.129580D+00  Symmetry=a1'

 Vector   23  Occ=0.000000D+00  E= 2.399812D+00  Symmetry=e'

 Vector   24  Occ=0.000000D+00  E= 2.399812D+00  Symmetry=e'

 Vector   25  Occ=0.000000D+00  E= 4.004220D+00  Symmetry=a1'

 Vector    1  Occ=1.000000D+00  E=-1.098013D+01  Symmetry=a1'

 Vector    2  Occ=1.000000D+00  E=-8.484012D-01  Symmetry=a1'

 Vector    3  Occ=1.000000D+00  E=-5.734478D-01  Symmetry=e'

 Vector    4  Occ=1.000000D+00  E=-5.734478D-01  Symmetry=e'

 Vector    5  Occ=0.000000D+00  E=-1.060184D-01  Symmetry=a2"

 Vector    6  Occ=0.000000D+00  E=-3.097183D-02  Symmetry=a1'

 Vector    7  Occ=0.000000D+00  E= 2.019310D-02  Symmetry=e'

 Vector    8  Occ=0.000000D+00  E= 2.019310D-02  Symmetry=e'

 Vector    9  Occ=0.000000D+00  E= 9.770657D-02  Symmetry=a2"

 Vector   10  Occ=0.000000D+00  E= 2.756367D-01  Symmetry=a1'

 Vector   11  Occ=0.000000D+00  E= 2.953917D-01  Symmetry=e'

 Vector   12  Occ=0.000000D+00  E= 2.953917D-01  Symmetry=e'

 Vector   13  Occ=0.000000D+00  E= 7.260984D-01  Symmetry=e'

 Vector   14  Occ=0.000000D+00  E= 7.260984D-01  Symmetry=e'

 Vector   15  Occ=0.000000D+00  E= 7.563973D-01  Symmetry=a2"

 Vector   16  Occ=0.000000D+00  E= 8.831192D-01  Symmetry=a1'

 Vector   17  Occ=0.000000D+00  E= 1.198167D+00  Symmetry=a1'

 Vector   18  Occ=0.000000D+00  E= 1.202130D+00  Symmetry=e'

 Vector   19  Occ=0.000000D+00  E= 1.202130D+00  Symmetry=e'

 Vector   20  Occ=0.000000D+00  E= 1.854864D+00  Symmetry=e"

 Vector   21  Occ=0.000000D+00  E= 1.854864D+00  Symmetry=e"

 Vector   22  Occ=0.000000D+00  E= 2.275788D+00  Symmetry=a1'

 Vector   23  Occ=0.000000D+00  E= 2.556723D+00  Symmetry=e'

 Vector   24  Occ=0.000000D+00  E= 2.556723D+00  Symmetry=e'

 Vector   25  Occ=0.000000D+00  E= 4.151138D+00  Symmetry=a1'

     Multipole analysis of the density
     ---------------------------------

     L   x y z        total         alpha         beta         nuclear
     -   - - -        -----         -----         ----         -------
     0   0 0 0     -0.000000     -5.000000     -4.000000      9.000000

     1   1 0 0     -0.000000     -0.000000     -0.000000      0.000000
     1   0 1 0      0.000000     -0.000000     -0.000000      0.000000
     1   0 0 1     -0.000000     -0.000000     -0.000000      0.000000

     2   2 0 0     -5.477443     -6.187288     -5.519703      6.229548
     2   1 1 0      0.000000     -0.000000     -0.000000      0.000000
     2   1 0 1     -0.000000     -0.000000     -0.000000      0.000000
     2   0 2 0     -5.477443     -6.187288     -5.519703      6.229548
     2   0 1 1      0.000000      0.000000      0.000000      0.000000

 Total times  cpu:        0.8s     wall:        1.7s
