============================== echo of input deck ==============================
# COSMO-SMD solvation results:
#             internal energy in gas <Psi(g)|H|Psi(g)> =      -115.9533911674
#    total free energy in solvent including G(SMD-CDS) =      -116.0794697262
#                       G(SMD-CDS) energy contribution =         0.0053001956 (    3.33 kcal/mol)
#     1 M fixed-concentration free energy of solvation =        -0.1260785589 (  -79.12 kcal/mol)
#
echo 'SMD/M06-2X/6-31G(d) solvation energy - protonated methanol CH3OH2+ in water'

start CH3OH2pWat_SMD_M062X_opt_dat

charge 1

geometry nocenter
 H    -0.996782    1.138765    0.000000
 C     0.038330    0.800183    0.000000
 O     0.038330   -0.725816    0.000000
 H     0.585508    1.066678    0.901842
 H     0.585508    1.066678   -0.901842
 H    -0.355429   -1.133347   -0.803114
 H    -0.355429   -1.133347    0.803114
symmetry c1
end

basis
 * library 6-31G*
end

dft
 print forces
 XC m06-2x
end

cosmo
 do_cosmo_smd true
 solvent water
end

driver
  clear
end

task dft optimize
================================================================================

         Total DFT energy =     -116.079469784878
@ Step       Energy      Delta E   Gmax     Grms     Xrms     Xmax   Walltime
@ ---- ---------------- -------- -------- -------- -------- -------- --------
@    0    -116.07946978  0.0D+00  0.02399  0.00541  0.00000  0.00000      2.3
         Total DFT energy =     -116.080807186700
         Total DFT energy =     -116.080813108925
@    1    -116.08081311 -1.3D-03  0.00227  0.00135  0.03553  0.07950      6.5
         Total DFT energy =     -116.081084529944
         Total DFT energy =     -116.081104275700
@    2    -116.08110428 -2.9D-04  0.00104  0.00040  0.01279  0.02452     10.8
         Total DFT energy =     -116.081146869435
         Total DFT energy =     -116.081152221505
@    3    -116.08115222 -4.8D-05  0.00063  0.00027  0.00550  0.01142     15.0
         Total DFT energy =     -116.081177208987
         Total DFT energy =     -116.081189523681
@    4    -116.08118952 -3.7D-05  0.00047  0.00016  0.00478  0.01262     19.1
         Total DFT energy =     -116.081192196654

 Vector    1  Occ=2.000000D+00  E=-1.978489D+01

 Vector    2  Occ=2.000000D+00  E=-1.062675D+01

 Vector    3  Occ=2.000000D+00  E=-1.280068D+00

 Vector    4  Occ=2.000000D+00  E=-8.451495D-01

 Vector    5  Occ=2.000000D+00  E=-7.258201D-01

 Vector    6  Occ=2.000000D+00  E=-6.321876D-01

 Vector    7  Occ=2.000000D+00  E=-5.765908D-01

 Vector    8  Occ=2.000000D+00  E=-4.974850D-01

 Vector    9  Occ=2.000000D+00  E=-4.633789D-01

 Vector   10  Occ=0.000000D+00  E= 6.802750D-02

 Vector   11  Occ=0.000000D+00  E= 1.607420D-01

 Vector   12  Occ=0.000000D+00  E= 1.641341D-01

 Vector   13  Occ=0.000000D+00  E= 1.897109D-01

 Vector   14  Occ=0.000000D+00  E= 2.116302D-01

 Vector   15  Occ=0.000000D+00  E= 2.148280D-01

 Vector   16  Occ=0.000000D+00  E= 5.444493D-01

 Vector   17  Occ=0.000000D+00  E= 5.799836D-01

 Vector   18  Occ=0.000000D+00  E= 5.901929D-01

 Vector   19  Occ=0.000000D+00  E= 7.977380D-01

 Vector   20  Occ=0.000000D+00  E= 8.271582D-01

 Vector   21  Occ=0.000000D+00  E= 8.911921D-01

 Vector   22  Occ=0.000000D+00  E= 9.310202D-01

 Vector   23  Occ=0.000000D+00  E= 9.396201D-01

 Vector   24  Occ=0.000000D+00  E= 9.646225D-01

 Vector   25  Occ=0.000000D+00  E= 1.033750D+00

 Vector   26  Occ=0.000000D+00  E= 1.075596D+00

 Vector   27  Occ=0.000000D+00  E= 1.107304D+00

 Vector   28  Occ=0.000000D+00  E= 1.439159D+00

 Vector   29  Occ=0.000000D+00  E= 1.523577D+00

 Vector   30  Occ=0.000000D+00  E= 1.540375D+00

 Vector   31  Occ=0.000000D+00  E= 1.941830D+00

 Vector   32  Occ=0.000000D+00  E= 2.044629D+00

 Vector   33  Occ=0.000000D+00  E= 2.085817D+00

 Vector   34  Occ=0.000000D+00  E= 2.249001D+00

 Vector   35  Occ=0.000000D+00  E= 2.281752D+00

 Vector   36  Occ=0.000000D+00  E= 2.303167D+00

 Vector   37  Occ=0.000000D+00  E= 2.519538D+00

 Vector   38  Occ=0.000000D+00  E= 2.715603D+00

 Vector   39  Occ=0.000000D+00  E= 3.690075D+00

 Vector   40  Occ=0.000000D+00  E= 4.227172D+00

         Total DFT energy =   -116.081192196654
@    5    -116.08119220 -2.7D-06  0.00012  0.00004  0.00083  0.00210     21.4
         Total DFT energy =     -116.081192353547

                       DFT Final Molecular Orbital Analysis
                       ------------------------------------

 Vector    1  Occ=2.000000D+00  E=-1.978490D+01

 Vector    2  Occ=2.000000D+00  E=-1.062674D+01

 Vector    3  Occ=2.000000D+00  E=-1.280011D+00

 Vector    4  Occ=2.000000D+00  E=-8.451146D-01

 Vector    5  Occ=2.000000D+00  E=-7.258018D-01

 Vector    6  Occ=2.000000D+00  E=-6.321422D-01

 Vector    7  Occ=2.000000D+00  E=-5.765937D-01

 Vector    8  Occ=2.000000D+00  E=-4.974601D-01

 Vector    9  Occ=2.000000D+00  E=-4.633634D-01

 Vector   10  Occ=0.000000D+00  E= 6.799534D-02

 Vector   11  Occ=0.000000D+00  E= 1.606885D-01

 Vector   12  Occ=0.000000D+00  E= 1.641491D-01

 Vector   13  Occ=0.000000D+00  E= 1.897048D-01

 Vector   14  Occ=0.000000D+00  E= 2.116221D-01

 Vector   15  Occ=0.000000D+00  E= 2.148321D-01

 Vector   16  Occ=0.000000D+00  E= 5.444602D-01

 Vector   17  Occ=0.000000D+00  E= 5.799858D-01

 Vector   18  Occ=0.000000D+00  E= 5.902209D-01

 Vector   19  Occ=0.000000D+00  E= 7.977572D-01

 Vector   20  Occ=0.000000D+00  E= 8.269617D-01

 Vector   21  Occ=0.000000D+00  E= 8.912018D-01

 Vector   22  Occ=0.000000D+00  E= 9.310217D-01

 Vector   23  Occ=0.000000D+00  E= 9.395816D-01

 Vector   24  Occ=0.000000D+00  E= 9.645947D-01

 Vector   25  Occ=0.000000D+00  E= 1.033751D+00

 Vector   26  Occ=0.000000D+00  E= 1.075622D+00

 Vector   27  Occ=0.000000D+00  E= 1.107259D+00

 Vector   28  Occ=0.000000D+00  E= 1.439147D+00

 Vector   29  Occ=0.000000D+00  E= 1.523596D+00

 Vector   30  Occ=0.000000D+00  E= 1.540345D+00

 Vector   31  Occ=0.000000D+00  E= 1.941954D+00

 Vector   32  Occ=0.000000D+00  E= 2.044673D+00

 Vector   33  Occ=0.000000D+00  E= 2.085875D+00

 Vector   34  Occ=0.000000D+00  E= 2.248956D+00

 Vector   35  Occ=0.000000D+00  E= 2.281793D+00

 Vector   36  Occ=0.000000D+00  E= 2.303127D+00

 Vector   37  Occ=0.000000D+00  E= 2.519292D+00

 Vector   38  Occ=0.000000D+00  E= 2.715611D+00

 Vector   39  Occ=0.000000D+00  E= 3.690068D+00

 Vector   40  Occ=0.000000D+00  E= 4.227171D+00

     Multipole analysis of the density
     ---------------------------------

     L   x y z        total         alpha         beta         nuclear
     -   - - -        -----         -----         ----         -------
     0   0 0 0      1.000000     -9.000000     -9.000000     19.000000

     1   1 0 0     -0.739455     -0.610090     -0.610090      0.480724
     1   0 1 0     -0.761466     -0.318530     -0.318530     -0.124405
     1   0 0 1     -0.000000     -0.000000     -0.000000      0.000000

     2   2 0 0     -8.411242     -7.721215     -7.721215      7.031188
     2   1 1 0      1.843270     -0.405791     -0.405791      2.654851
     2   1 0 1      0.000000     -0.000000     -0.000000      0.000000
     2   0 2 0     -4.657998    -26.324305    -26.324305     47.990612
     2   0 1 1     -0.000000      0.000000      0.000000     -0.000000

         Total DFT energy =   -116.081192353547
@    6    -116.08119235 -1.6D-07  0.00003  0.00001  0.00017  0.00049     23.5
@    6    -116.08119235 -1.6D-07  0.00003  0.00001  0.00017  0.00049     23.5

 Output coordinates in angstroms (scale by  1.889725989 to convert to a.u.)

  No.       Tag          Charge          X              Y              Z
 ---- ---------------- ---------- -------------- -------------- --------------
    1 H                    1.0000    -0.98911124     1.10258756    -0.00000004
    2 C                    6.0000     0.04374360     0.76587825     0.00000001
    3 O                    8.0000     0.07080490    -0.71071680     0.00000001
    4 H                    1.0000     0.57694441     1.05999722     0.89872103
    5 H                    1.0000     0.57694448     1.05999717    -0.89872100
    6 H                    1.0000    -0.36964515    -1.09897466    -0.78809247
    7 H                    1.0000    -0.36964500    -1.09897474     0.78809247

 Total times  cpu:       23.1s     wall:       23.6s
