============================== echo of input deck ==============================
# COSMO-SMD solvation results:
#             internal energy in gas <Psi(g)|H|Psi(g)> =      -115.9533911674
#    total free energy in solvent including G(SMD-CDS) =      -116.0794697262
#                       G(SMD-CDS) energy contribution =         0.0053001956 (    3.33 kcal/mol)
#     1 M fixed-concentration free energy of solvation =        -0.1260785589 (  -79.12 kcal/mol)
#
echo 'SMD/M06-2X/6-31G(d) solvation energy - protonated methanol CH3OH2+ in water'

start CH3OH2pWat_SMD_M062X

charge 1

geometry nocenter
 H    -0.996782    1.138765    0.000000
 C     0.038330    0.800183    0.000000
 O     0.038330   -0.725816    0.000000
 H     0.585508    1.066678    0.901842
 H     0.585508    1.066678   -0.901842
 H    -0.355429   -1.133347   -0.803114
 H    -0.355429   -1.133347    0.803114
symmetry c1
end

basis
 * library 6-31G*
end

dft
 XC m06-2x
end

cosmo
 do_cosmo_smd true
 solvent h2o
end

task dft energy
================================================================================

 Output coordinates in angstroms (scale by  1.889725989 to convert to a.u.)

  No.       Tag          Charge          X              Y              Z
 ---- ---------------- ---------- -------------- -------------- --------------
    1 H                    1.0000    -0.99678200     1.13876500     0.00000000
    2 C                    6.0000     0.03833000     0.80018300     0.00000000
    3 O                    8.0000     0.03833000    -0.72581600     0.00000000
    4 H                    1.0000     0.58550800     1.06667800     0.90184200
    5 H                    1.0000     0.58550800     1.06667800    -0.90184200
    6 H                    1.0000    -0.35542900    -1.13334700    -0.80311400
    7 H                    1.0000    -0.35542900    -1.13334700     0.80311400

         Total DFT energy =     -116.079469784878

                       DFT Final Molecular Orbital Analysis
                       ------------------------------------

 Vector    1  Occ=2.000000D+00  E=-1.977783D+01

 Vector    2  Occ=2.000000D+00  E=-1.063283D+01

 Vector    3  Occ=2.000000D+00  E=-1.263637D+00

 Vector    4  Occ=2.000000D+00  E=-8.403843D-01

 Vector    5  Occ=2.000000D+00  E=-7.205622D-01

 Vector    6  Occ=2.000000D+00  E=-6.194843D-01

 Vector    7  Occ=2.000000D+00  E=-5.671539D-01

 Vector    8  Occ=2.000000D+00  E=-5.008686D-01

 Vector    9  Occ=2.000000D+00  E=-4.647655D-01

 Vector   10  Occ=0.000000D+00  E= 6.080827D-02

 Vector   11  Occ=0.000000D+00  E= 1.499660D-01

 Vector   12  Occ=0.000000D+00  E= 1.645687D-01

 Vector   13  Occ=0.000000D+00  E= 1.837686D-01

 Vector   14  Occ=0.000000D+00  E= 2.110546D-01

 Vector   15  Occ=0.000000D+00  E= 2.135860D-01

 Vector   16  Occ=0.000000D+00  E= 5.422415D-01

 Vector   17  Occ=0.000000D+00  E= 5.734457D-01

 Vector   18  Occ=0.000000D+00  E= 5.894566D-01

 Vector   19  Occ=0.000000D+00  E= 8.121264D-01

 Vector   20  Occ=0.000000D+00  E= 8.237452D-01

 Vector   21  Occ=0.000000D+00  E= 8.913500D-01

 Vector   22  Occ=0.000000D+00  E= 9.230594D-01

 Vector   23  Occ=0.000000D+00  E= 9.393824D-01

 Vector   24  Occ=0.000000D+00  E= 9.647830D-01

 Vector   25  Occ=0.000000D+00  E= 1.034645D+00

 Vector   26  Occ=0.000000D+00  E= 1.079816D+00

 Vector   27  Occ=0.000000D+00  E= 1.100044D+00

 Vector   28  Occ=0.000000D+00  E= 1.433890D+00

 Vector   29  Occ=0.000000D+00  E= 1.523454D+00

 Vector   30  Occ=0.000000D+00  E= 1.547183D+00

 Vector   31  Occ=0.000000D+00  E= 1.908989D+00

 Vector   32  Occ=0.000000D+00  E= 2.029888D+00

 Vector   33  Occ=0.000000D+00  E= 2.046917D+00

 Vector   34  Occ=0.000000D+00  E= 2.258461D+00

 Vector   35  Occ=0.000000D+00  E= 2.266617D+00

 Vector   36  Occ=0.000000D+00  E= 2.268575D+00

 Vector   37  Occ=0.000000D+00  E= 2.516352D+00

 Vector   38  Occ=0.000000D+00  E= 2.695712D+00

 Vector   39  Occ=0.000000D+00  E= 3.680356D+00

 Vector   40  Occ=0.000000D+00  E= 4.224639D+00

     Multipole analysis of the density
     ---------------------------------

     L   x y z        total         alpha         beta         nuclear
     -   - - -        -----         -----         ----         -------
     0   0 0 0      1.000000     -9.000000     -9.000000     19.000000

     1   1 0 0     -0.686512     -0.343252     -0.343252     -0.000008
     1   0 1 0     -0.719914     -0.359954     -0.359954     -0.000006
     1   0 0 1     -0.000000     -0.000000     -0.000000      0.000000

     2   2 0 0     -8.441488     -7.706892     -7.706892      6.972295
     2   1 1 0      1.779428     -0.683531     -0.683531      3.146490
     2   1 0 1      0.000000      0.000000      0.000000      0.000000
     2   0 2 0     -4.298290    -27.499360    -27.499360     50.700430
     2   0 1 1      0.000000      0.000000      0.000000      0.000000

 Total times  cpu:        1.9s     wall:        2.1s
