============================== echo of input deck ==============================
# COSMO-SMD solvation results:
#             internal energy in gas <Psi(g)|H|Psi(g)> =      -115.9533911674
#    total free energy in solvent including G(SMD-CDS) =      -116.0794697262
#                       G(SMD-CDS) energy contribution =         0.0053001956 (    3.33 kcal/mol)
#     1 M fixed-concentration free energy of solvation =        -0.1260785589 (  -79.12 kcal/mol)
#
echo 'SMD/M06-2X/6-31G(d) solvation energy - protonated methanol CH3OH2+ in water'

start CH3OH2pWat_SMD_M062X_opt_dat

charge 1

geometry nocenter
 H    -0.996782    1.138765    0.000000
 C     0.038330    0.800183    0.000000
 O     0.038330   -0.725816    0.000000
 H     0.585508    1.066678    0.901842
 H     0.585508    1.066678   -0.901842
 H    -0.355429   -1.133347   -0.803114
 H    -0.355429   -1.133347    0.803114
symmetry c1
end

basis
 * library 6-31G*
end

dft
 print forces
 XC m06-2x
end

cosmo
 do_cosmo_smd true
 solvent water
end

driver
  clear
end

task dft optimize
================================================================================

         Total DFT energy =     -116.079469732490
@ Step       Energy      Delta E   Gmax     Grms     Xrms     Xmax   Walltime
@ ---- ---------------- -------- -------- -------- -------- -------- --------
@    0    -116.07946973  0.0D+00  0.02399  0.00541  0.00000  0.00000     37.5
         Total DFT energy =     -116.080807131101
         Total DFT energy =     -116.080813053476
@    1    -116.08081305 -1.3D-03  0.00227  0.00135  0.03553  0.07950    102.3
         Total DFT energy =     -116.081084473762
         Total DFT energy =     -116.081104220303
@    2    -116.08110422 -2.9D-04  0.00104  0.00040  0.01279  0.02452    170.0
         Total DFT energy =     -116.081146813253
         Total DFT energy =     -116.081152164294

 Vector   16  Occ=0.000000D+00  E= 5.447337D-01

 Vector   17  Occ=0.000000D+00  E= 5.796450D-01

 Vector   18  Occ=0.000000D+00  E= 5.903388D-01

 Vector   19  Occ=0.000000D+00  E= 7.991253D-01

@    3    -116.08115216 -4.8D-05  0.00063  0.00027  0.00550  0.01142    235.6
         Total DFT energy =     -116.081177151718

 Vector    1  Occ=2.000000D+00  E=-1.978487D+01

 Vector    2  Occ=2.000000D+00  E=-1.062668D+01

 Vector    3  Occ=2.000000D+00  E=-1.280115D+00

 Vector    4  Occ=2.000000D+00  E=-8.453509D-01

 Vector    5  Occ=2.000000D+00  E=-7.258621D-01

 Vector    6  Occ=2.000000D+00  E=-6.324310D-01

 Vector    7  Occ=2.000000D+00  E=-5.768221D-01

 Vector    8  Occ=2.000000D+00  E=-4.972099D-01

 Vector    9  Occ=2.000000D+00  E=-4.627489D-01

 Vector   10  Occ=0.000000D+00  E= 6.813231D-02

 Vector   11  Occ=0.000000D+00  E= 1.604867D-01

 Vector   12  Occ=0.000000D+00  E= 1.646546D-01

 Vector   13  Occ=0.000000D+00  E= 1.900067D-01

 Vector   14  Occ=0.000000D+00  E= 2.117552D-01

 Vector   15  Occ=0.000000D+00  E= 2.147721D-01

 Vector   16  Occ=0.000000D+00  E= 5.445900D-01

 Vector   17  Occ=0.000000D+00  E= 5.797501D-01

 Vector   18  Occ=0.000000D+00  E= 5.902272D-01

 Vector   19  Occ=0.000000D+00  E= 7.982008D-01

         Total DFT energy =     -116.081189467284

 Vector    1  Occ=2.000000D+00  E=-1.978499D+01

 Vector    2  Occ=2.000000D+00  E=-1.062674D+01

 Vector    3  Occ=2.000000D+00  E=-1.279867D+00

 Vector    4  Occ=2.000000D+00  E=-8.451221D-01

 Vector    5  Occ=2.000000D+00  E=-7.251568D-01

 Vector    6  Occ=2.000000D+00  E=-6.323139D-01

 Vector    7  Occ=2.000000D+00  E=-5.765053D-01

 Vector    8  Occ=2.000000D+00  E=-4.974649D-01

 Vector    9  Occ=2.000000D+00  E=-4.634154D-01

 Vector   10  Occ=0.000000D+00  E= 6.789661D-02

 Vector   11  Occ=0.000000D+00  E= 1.604637D-01

 Vector   12  Occ=0.000000D+00  E= 1.641216D-01

 Vector   13  Occ=0.000000D+00  E= 1.896221D-01

 Vector   14  Occ=0.000000D+00  E= 2.116437D-01

 Vector   15  Occ=0.000000D+00  E= 2.148339D-01

 Vector   16  Occ=0.000000D+00  E= 5.444455D-01

 Vector   17  Occ=0.000000D+00  E= 5.798545D-01

 Vector   18  Occ=0.000000D+00  E= 5.901168D-01

 Vector   19  Occ=0.000000D+00  E= 7.972592D-01

@    4    -116.08118947 -3.7D-05  0.00047  0.00016  0.00478  0.01262    301.1
         Total DFT energy =     -116.081192140034

 Vector    1  Occ=2.000000D+00  E=-1.978489D+01

 Vector    2  Occ=2.000000D+00  E=-1.062675D+01

 Vector    3  Occ=2.000000D+00  E=-1.280068D+00

 Vector    4  Occ=2.000000D+00  E=-8.451494D-01

 Vector    5  Occ=2.000000D+00  E=-7.258201D-01

 Vector    6  Occ=2.000000D+00  E=-6.321876D-01

 Vector    7  Occ=2.000000D+00  E=-5.765908D-01

 Vector    8  Occ=2.000000D+00  E=-4.974849D-01

 Vector    9  Occ=2.000000D+00  E=-4.633788D-01

 Vector   10  Occ=0.000000D+00  E= 6.803050D-02

 Vector   11  Occ=0.000000D+00  E= 1.607479D-01

 Vector   12  Occ=0.000000D+00  E= 1.641350D-01

 Vector   13  Occ=0.000000D+00  E= 1.897128D-01

 Vector   14  Occ=0.000000D+00  E= 2.116310D-01

 Vector   15  Occ=0.000000D+00  E= 2.148286D-01

 Vector   16  Occ=0.000000D+00  E= 5.444496D-01

 Vector   17  Occ=0.000000D+00  E= 5.799837D-01

 Vector   18  Occ=0.000000D+00  E= 5.901930D-01

 Vector   19  Occ=0.000000D+00  E= 7.977403D-01

         Total DFT energy =   -116.081192140034
@    5    -116.08119214 -2.7D-06  0.00012  0.00004  0.00083  0.00210    336.0
         Total DFT energy =     -116.081192296875

                       DFT Final Molecular Orbital Analysis
                       ------------------------------------

 Vector    1  Occ=2.000000D+00  E=-1.978490D+01

 Vector    2  Occ=2.000000D+00  E=-1.062674D+01

 Vector    3  Occ=2.000000D+00  E=-1.280011D+00

 Vector    4  Occ=2.000000D+00  E=-8.451145D-01

 Vector    5  Occ=2.000000D+00  E=-7.258018D-01

 Vector    6  Occ=2.000000D+00  E=-6.321421D-01

 Vector    7  Occ=2.000000D+00  E=-5.765936D-01

 Vector    8  Occ=2.000000D+00  E=-4.974600D-01

 Vector    9  Occ=2.000000D+00  E=-4.633632D-01

 Vector   10  Occ=0.000000D+00  E= 6.799833D-02

 Vector   11  Occ=0.000000D+00  E= 1.606944D-01

 Vector   12  Occ=0.000000D+00  E= 1.641500D-01

 Vector   13  Occ=0.000000D+00  E= 1.897067D-01

 Vector   14  Occ=0.000000D+00  E= 2.116229D-01

 Vector   15  Occ=0.000000D+00  E= 2.148327D-01

 Vector   16  Occ=0.000000D+00  E= 5.444605D-01

 Vector   17  Occ=0.000000D+00  E= 5.799859D-01

 Vector   18  Occ=0.000000D+00  E= 5.902210D-01

 Vector   19  Occ=0.000000D+00  E= 7.977596D-01

     Multipole analysis of the density
     ---------------------------------

     L   x y z        total         alpha         beta         nuclear
     -   - - -        -----         -----         ----         -------
     0   0 0 0      1.000000     -9.000000     -9.000000     19.000000

     1   1 0 0     -0.739456     -0.610089     -0.610089      0.480722
     1   0 1 0     -0.761466     -0.318531     -0.318531     -0.124405
     1   0 0 1      0.000000      0.000000      0.000000      0.000000

     2   2 0 0     -8.411241     -7.721214     -7.721214      7.031187
     2   1 1 0      1.843271     -0.405791     -0.405791      2.654853
     2   1 0 1      0.000000      0.000000      0.000000      0.000000
     2   0 2 0     -4.657994    -26.324304    -26.324304     47.990613
     2   0 1 1      0.000000      0.000000      0.000000      0.000000

         Total DFT energy =   -116.081192296875
@    6    -116.08119230 -1.6D-07  0.00003  0.00001  0.00017  0.00049    371.0
@    6    -116.08119230 -1.6D-07  0.00003  0.00001  0.00017  0.00049    371.0

 Output coordinates in angstroms (scale by  1.889725989 to convert to a.u.)

  No.       Tag          Charge          X              Y              Z
 ---- ---------------- ---------- -------------- -------------- --------------
    1 H                    1.0000    -0.98911120     1.10258760    -0.00000004
    2 C                    6.0000     0.04374359     0.76587824     0.00000000
    3 O                    8.0000     0.07080476    -0.71071680     0.00000000
    4 H                    1.0000     0.57694440     1.05999721     0.89872099
    5 H                    1.0000     0.57694447     1.05999717    -0.89872097
    6 H                    1.0000    -0.36964508    -1.09897467    -0.78809247
    7 H                    1.0000    -0.36964493    -1.09897475     0.78809247

 Total times  cpu:      370.1s     wall:      371.0s
