============================== echo of input deck ==============================

echo
start cho_bp_zora_finite
title cho_bp_zora_finite

memory total 800 stack 400 heap 50 global 350 mb

geometry noautoz units angstrom nocenter nucleus finite
symmetry c1
  C    +10.00000000    +20.00000000    +30.00000000
  O    +11.18337200    +20.00000000    +30.00000000
  H     +9.36848179    +20.94387462    +30.00000000
end

basis
"*" library 6-311G**
end

charge 0

relativistic
  zora on
  zora:cutoff 1d-30
end

dft
odft
mult 2
direct
xc becke88 perdew86
end

task dft
================================================================================

 Output coordinates in angstroms (scale by  1.889725989 to convert to a.u.)

  No.       Tag          Charge          X              Y              Z
 ---- ---------------- ---------- -------------- -------------- --------------
    1 C                    6.0000    10.00000000    20.00000000    30.00000000
    2 O                    8.0000    11.18337200    20.00000000    30.00000000
    3 H                    1.0000     9.36848179    20.94387462    30.00000000

         Total DFT energy =     -113.991293775885

                    DFT Final Alpha Molecular Orbital Analysis
                    ------------------------------------------

 Vector    1  Occ=1.000000D+00  E=-1.884413D+01

 Vector    9  Occ=0.000000D+00  E=-9.292580D-02

 Vector   10  Occ=0.000000D+00  E= 4.480080D-02

 Vector   11  Occ=0.000000D+00  E= 1.648245D-01

 Vector   12  Occ=0.000000D+00  E= 3.118264D-01

 Vector   13  Occ=0.000000D+00  E= 3.498455D-01

 Vector   14  Occ=0.000000D+00  E= 3.532705D-01

 Vector   15  Occ=0.000000D+00  E= 5.143418D-01

 Vector   16  Occ=0.000000D+00  E= 5.570550D-01

 Vector   17  Occ=0.000000D+00  E= 6.666213D-01

 Vector   18  Occ=0.000000D+00  E= 7.540656D-01

 Vector   19  Occ=0.000000D+00  E= 7.843211D-01

 Vector   20  Occ=0.000000D+00  E= 1.014918D+00

 Vector   21  Occ=0.000000D+00  E= 1.095888D+00

 Vector   22  Occ=0.000000D+00  E= 1.155066D+00

 Vector   23  Occ=0.000000D+00  E= 1.280061D+00

 Vector   24  Occ=0.000000D+00  E= 1.378964D+00

 Vector   25  Occ=0.000000D+00  E= 1.519197D+00

 Vector   26  Occ=0.000000D+00  E= 1.685082D+00

 Vector   27  Occ=0.000000D+00  E= 1.956239D+00

 Vector   28  Occ=0.000000D+00  E= 2.107611D+00

 Vector   29  Occ=0.000000D+00  E= 2.324281D+00

 Vector   30  Occ=0.000000D+00  E= 2.455516D+00

 Vector   31  Occ=0.000000D+00  E= 2.501140D+00

 Vector   32  Occ=0.000000D+00  E= 2.699745D+00

 Vector   33  Occ=0.000000D+00  E= 2.711571D+00

 Vector   34  Occ=0.000000D+00  E= 2.995544D+00

 Vector   35  Occ=0.000000D+00  E= 3.192467D+00

 Vector   36  Occ=0.000000D+00  E= 3.243325D+00

 Vector   37  Occ=0.000000D+00  E= 3.366465D+00

 Vector   38  Occ=0.000000D+00  E= 3.594713D+00

 Vector   39  Occ=0.000000D+00  E= 4.661692D+00

 Vector   40  Occ=0.000000D+00  E= 4.709967D+00

 Vector   41  Occ=0.000000D+00  E= 5.224431D+00

 Vector   42  Occ=0.000000D+00  E= 6.235878D+00

 Vector   43  Occ=0.000000D+00  E= 2.590516D+01

 Vector   44  Occ=0.000000D+00  E= 5.451450D+01

 Vector    1  Occ=1.000000D+00  E=-1.883663D+01

 Vector    2  Occ=1.000000D+00  E=-9.995718D+00

 Vector    3  Occ=1.000000D+00  E=-1.012757D+00

 Vector    4  Occ=1.000000D+00  E=-5.376111D-01

 Vector    5  Occ=1.000000D+00  E=-4.299935D-01

 Vector    6  Occ=1.000000D+00  E=-3.891066D-01

 Vector    7  Occ=1.000000D+00  E=-3.500526D-01

 Vector    8  Occ=0.000000D+00  E=-1.170721D-01

 Vector    9  Occ=0.000000D+00  E=-7.649446D-02

 Vector   10  Occ=0.000000D+00  E= 6.156209D-02

 Vector   11  Occ=0.000000D+00  E= 1.737391D-01

 Vector   12  Occ=0.000000D+00  E= 3.394749D-01

 Vector   13  Occ=0.000000D+00  E= 3.643922D-01

 Vector   14  Occ=0.000000D+00  E= 3.877942D-01

 Vector   15  Occ=0.000000D+00  E= 5.277360D-01

 Vector   16  Occ=0.000000D+00  E= 5.694075D-01

 Vector   17  Occ=0.000000D+00  E= 6.748010D-01

 Vector   18  Occ=0.000000D+00  E= 7.585059D-01

 Vector   19  Occ=0.000000D+00  E= 8.056178D-01

 Vector   20  Occ=0.000000D+00  E= 1.039802D+00

 Vector   21  Occ=0.000000D+00  E= 1.118390D+00

 Vector   22  Occ=0.000000D+00  E= 1.182666D+00

 Vector   23  Occ=0.000000D+00  E= 1.309013D+00

 Vector   24  Occ=0.000000D+00  E= 1.405190D+00

 Vector   25  Occ=0.000000D+00  E= 1.544656D+00

 Vector   26  Occ=0.000000D+00  E= 1.711930D+00

 Vector   27  Occ=0.000000D+00  E= 1.991473D+00

 Vector   28  Occ=0.000000D+00  E= 2.140072D+00

 Vector   29  Occ=0.000000D+00  E= 2.355950D+00

 Vector   30  Occ=0.000000D+00  E= 2.469750D+00

 Vector   31  Occ=0.000000D+00  E= 2.560646D+00

 Vector   32  Occ=0.000000D+00  E= 2.722235D+00

 Vector   33  Occ=0.000000D+00  E= 2.735413D+00

 Vector   34  Occ=0.000000D+00  E= 3.009355D+00

 Vector   35  Occ=0.000000D+00  E= 3.198112D+00

 Vector   36  Occ=0.000000D+00  E= 3.263021D+00

 Vector   37  Occ=0.000000D+00  E= 3.388429D+00

 Vector   38  Occ=0.000000D+00  E= 3.607953D+00

 Vector   39  Occ=0.000000D+00  E= 4.667932D+00

 Vector   40  Occ=0.000000D+00  E= 4.747616D+00

 Vector   41  Occ=0.000000D+00  E= 5.235818D+00

 Vector   42  Occ=0.000000D+00  E= 6.253447D+00

 Vector   43  Occ=0.000000D+00  E= 2.591879D+01

 Vector   44  Occ=0.000000D+00  E= 5.452468D+01

     Multipole analysis of the density
     ---------------------------------

     L   x y z        total         alpha         beta         nuclear
     -   - - -        -----         -----         ----         -------
     0   0 0 0      0.000000     -8.000000     -7.000000     15.000000

     1   1 0 0     -0.449814   -159.812017   -140.793289    300.155492
     1   0 1 0      0.372577   -303.027144   -265.301739    568.701461
     1   0 0 1      0.000000   -453.534237   -396.842458    850.376695

     2   2 0 0    -26.592574  -3209.941374  -2845.718093   6029.066893
     2   1 1 0    -10.385626  -6051.796837  -5334.399236  11375.810447
     2   1 0 1    -25.500743  -9060.027672  -7981.822114  17016.349043
     2   0 2 0     19.817876 -11484.981110 -10059.593823  21564.392809
     2   0 1 1     21.122069 -17179.148089 -15040.427758  32240.697916

 Total times  cpu:        1.0s     wall:        1.1s
