============================== echo of input deck ==============================
echo
start co_core

title co_core

memory 1000 mb

geometry units angstrom noautosym nocenter
 O 0       0        0
 C 0       0.00     1.15
end

basis
  * library aug-cc-pvtz
end

dft
  xc b3lyp
end
task dft optimize

dft
  xc beckehandh
end
task dft

tddft
  cis
  ecut -15
  nroots 30
  notriplet
  thresh 1e-03
end
task tddft
================================================================================

         Total DFT energy =     -113.359663756487
@ Step       Energy      Delta E   Gmax     Grms     Xrms     Xmax   Walltime
@ ---- ---------------- -------- -------- -------- -------- -------- --------
@    0    -113.35966376  0.0D+00  0.05369  0.05369  0.00000  0.00000      3.0
         Total DFT energy =     -113.359859468371
         Total DFT energy =     -113.360939485049
@    1    -113.36093949 -1.3D-03  0.00133  0.00133  0.01304  0.02258      6.7
         Total DFT energy =     -113.360940099382
         Total DFT energy =   -113.360940099382
@    2    -113.36094010 -6.1D-07  0.00000  0.00000  0.00033  0.00057      9.1
@    2    -113.36094010 -6.1D-07  0.00000  0.00000  0.00033  0.00057      9.1

 Output coordinates in angstroms (scale by  1.889725989 to convert to a.u.)

  No.       Tag          Charge          X              Y              Z
 ---- ---------------- ---------- -------------- -------------- --------------
    1 O                    8.0000     0.00000000     0.00000000     0.01225052
    2 C                    6.0000     0.00000000     0.00000000     1.13774948

         Total DFT energy =     -112.616925182561
         Total DFT energy =     -112.616925193738

                       DFT Final Molecular Orbital Analysis
                       ------------------------------------

 Vector    1  Occ=2.000000D+00  E=-1.969071D+01

 Vector   31  Occ=0.000000D+00  E= 6.478450D-01

 Vector   32  Occ=0.000000D+00  E= 6.812142D-01

 Vector   33  Occ=0.000000D+00  E= 7.642306D-01

 Vector   34  Occ=0.000000D+00  E= 8.485193D-01

 Vector   35  Occ=0.000000D+00  E= 8.485193D-01

 Vector   36  Occ=0.000000D+00  E= 9.350015D-01

 Vector   37  Occ=0.000000D+00  E= 9.350016D-01

 Vector   38  Occ=0.000000D+00  E= 9.530264D-01

 Vector   39  Occ=0.000000D+00  E= 9.787556D-01

 Vector   40  Occ=0.000000D+00  E= 9.787556D-01

 Vector   41  Occ=0.000000D+00  E= 1.025289D+00

 Vector   42  Occ=0.000000D+00  E= 1.025289D+00

 Vector   43  Occ=0.000000D+00  E= 1.074668D+00

 Vector   44  Occ=0.000000D+00  E= 1.130910D+00

 Vector   45  Occ=0.000000D+00  E= 1.130910D+00

 Vector   46  Occ=0.000000D+00  E= 1.169322D+00

 Vector   47  Occ=0.000000D+00  E= 1.178106D+00

 Vector   48  Occ=0.000000D+00  E= 1.178106D+00

 Vector   49  Occ=0.000000D+00  E= 1.465146D+00

 Vector   50  Occ=0.000000D+00  E= 1.465146D+00

 Vector   51  Occ=0.000000D+00  E= 1.491274D+00

 Vector   52  Occ=0.000000D+00  E= 1.581388D+00

 Vector   53  Occ=0.000000D+00  E= 1.908666D+00

 Vector   54  Occ=0.000000D+00  E= 1.908666D+00

 Vector   55  Occ=0.000000D+00  E= 1.963577D+00

 Vector   56  Occ=0.000000D+00  E= 1.989830D+00

 Vector   57  Occ=0.000000D+00  E= 1.989830D+00

 Vector   58  Occ=0.000000D+00  E= 2.001346D+00

 Vector   59  Occ=0.000000D+00  E= 2.001346D+00

 Vector   60  Occ=0.000000D+00  E= 2.194562D+00

 Vector   61  Occ=0.000000D+00  E= 2.323262D+00

 Vector   62  Occ=0.000000D+00  E= 2.323262D+00

 Vector   63  Occ=0.000000D+00  E= 2.424433D+00

 Vector   64  Occ=0.000000D+00  E= 2.424433D+00

 Vector   65  Occ=0.000000D+00  E= 2.449604D+00

 Vector   66  Occ=0.000000D+00  E= 2.724608D+00

 Vector   67  Occ=0.000000D+00  E= 2.777067D+00

 Vector   68  Occ=0.000000D+00  E= 2.777067D+00

 Vector   69  Occ=0.000000D+00  E= 2.881915D+00

 Vector   70  Occ=0.000000D+00  E= 2.881915D+00

 Vector   71  Occ=0.000000D+00  E= 3.192295D+00

 Vector   72  Occ=0.000000D+00  E= 3.192295D+00

 Vector   73  Occ=0.000000D+00  E= 3.242586D+00

 Vector   74  Occ=0.000000D+00  E= 3.242586D+00

 Vector   75  Occ=0.000000D+00  E= 3.450896D+00

 Vector   76  Occ=0.000000D+00  E= 3.450896D+00

 Vector   77  Occ=0.000000D+00  E= 3.469522D+00

 Vector   78  Occ=0.000000D+00  E= 3.551668D+00

 Vector   79  Occ=0.000000D+00  E= 3.551668D+00

 Vector   80  Occ=0.000000D+00  E= 3.664486D+00

 Vector   81  Occ=0.000000D+00  E= 3.918274D+00

 Vector   82  Occ=0.000000D+00  E= 4.266516D+00

 Vector   83  Occ=0.000000D+00  E= 4.387862D+00

 Vector   84  Occ=0.000000D+00  E= 4.387862D+00

 Vector   85  Occ=0.000000D+00  E= 5.349449D+00

 Vector   86  Occ=0.000000D+00  E= 5.355003D+00

 Vector   87  Occ=0.000000D+00  E= 5.355003D+00

 Vector   88  Occ=0.000000D+00  E= 5.985160D+00

 Vector   89  Occ=0.000000D+00  E= 6.180156D+00

 Vector   90  Occ=0.000000D+00  E= 6.180156D+00

 Vector   91  Occ=0.000000D+00  E= 6.461371D+00

 Vector   92  Occ=0.000000D+00  E= 6.461371D+00

 Vector   93  Occ=0.000000D+00  E= 6.695466D+00

 Vector   94  Occ=0.000000D+00  E= 6.695466D+00

 Vector   95  Occ=0.000000D+00  E= 6.805273D+00

 Vector   96  Occ=0.000000D+00  E= 6.805273D+00

 Vector   97  Occ=0.000000D+00  E= 7.178395D+00

 Vector   98  Occ=0.000000D+00  E= 7.178395D+00

 Vector   99  Occ=0.000000D+00  E= 7.389359D+00

 Vector  100  Occ=0.000000D+00  E= 7.389359D+00

 Vector  101  Occ=0.000000D+00  E= 7.415790D+00

 Vector  102  Occ=0.000000D+00  E= 7.469090D+00

 Vector  103  Occ=0.000000D+00  E= 8.337089D+00

 Vector  104  Occ=0.000000D+00  E= 9.669012D+00

 Vector  105  Occ=0.000000D+00  E= 1.363913D+01

 Vector  106  Occ=0.000000D+00  E= 1.363913D+01

 Vector  107  Occ=0.000000D+00  E= 1.436226D+01

 Vector  108  Occ=0.000000D+00  E= 1.566749D+01

 Vector  109  Occ=0.000000D+00  E= 1.726346D+01

 Vector  110  Occ=0.000000D+00  E= 2.726370D+01

     Multipole analysis of the density
     ---------------------------------

     L   x y z        total         alpha         beta         nuclear
     -   - - -        -----         -----         ----         -------
     0   0 0 0     -0.000000     -7.000000     -7.000000     14.000000

     1   1 0 0     -0.000000     -0.000000     -0.000000      0.000000
     1   0 1 0      0.000000      0.000000      0.000000      0.000000
     1   0 0 1      0.001093     -6.542158     -6.542158     13.085410

     2   2 0 0     -7.658449     -3.829224     -3.829224      0.000000
     2   1 1 0     -0.000000     -0.000000     -0.000000      0.000000
     2   1 0 1     -0.000000     -0.000000     -0.000000      0.000000
     2   0 2 0     -7.658449     -3.829224     -3.829224      0.000000
     2   0 1 1      0.000000      0.000000      0.000000      0.000000

  Root   1 singlet a             19.446988682 a.u.              529.1797 eV
     Dipole Oscillator Strength                    0.0442878085
  Root   2 singlet a             19.446988682 a.u.              529.1797 eV
     Dipole Oscillator Strength                    0.0442878085
  Root   3 singlet a             19.625944110 a.u.              534.0493 eV
     Dipole Oscillator Strength                    0.0018979538
  Root   4 singlet a             19.673503072 a.u.              535.3435 eV
     Dipole Oscillator Strength                    0.0002647666
  Root   5 singlet a             19.673503072 a.u.              535.3435 eV
     Dipole Oscillator Strength                    0.0002647666
  Root   6 singlet a             19.675822286 a.u.              535.4066 eV
     Dipole Oscillator Strength                    0.0000298923
  Root   7 singlet a             19.725158975 a.u.              536.7491 eV
     Dipole Oscillator Strength                    0.0025962470
  Root   8 singlet a             19.744329013 a.u.              537.2708 eV
     Dipole Oscillator Strength                    0.0052963339
  Root   9 singlet a             19.744329013 a.u.              537.2708 eV
     Dipole Oscillator Strength                    0.0052963339
  Root  10 singlet a             19.790117088 a.u.              538.5167 eV
     Dipole Oscillator Strength                    0.0000880522
  Root  11 singlet a             19.815852087 a.u.              539.2170 eV
     Dipole Oscillator Strength                    0.0000000000
  Root  12 singlet a             19.815852130 a.u.              539.2170 eV
     Dipole Oscillator Strength                    0.0000000000
  Root  13 singlet a             19.859346925 a.u.              540.4006 eV
     Dipole Oscillator Strength                    0.0013119555
  Root  14 singlet a             19.896868920 a.u.              541.4216 eV
     Dipole Oscillator Strength                    0.0124627410
  Root  15 singlet a             19.915253711 a.u.              541.9219 eV
     Dipole Oscillator Strength                    0.0009666921
  Root  16 singlet a             19.915253711 a.u.              541.9219 eV
     Dipole Oscillator Strength                    0.0009666921
  Root  17 singlet a             19.954626236 a.u.              542.9932 eV
     Dipole Oscillator Strength                    0.0031719091
  Root  18 singlet a             19.954626236 a.u.              542.9932 eV
     Dipole Oscillator Strength                    0.0031719091
  Root  19 singlet a             19.991429002 a.u.              543.9947 eV
     Dipole Oscillator Strength                    0.0063011237
  Root  20 singlet a             20.079763267 a.u.              546.3984 eV
     Dipole Oscillator Strength                    0.0142779119
  Root  21 singlet a             20.142304026 a.u.              548.1002 eV
     Dipole Oscillator Strength                    0.0000000000
  Root  22 singlet a             20.142304062 a.u.              548.1002 eV
     Dipole Oscillator Strength                    0.0000000000
  Root  23 singlet a             20.145755040 a.u.              548.1941 eV
     Dipole Oscillator Strength                    0.0144933656
  Root  24 singlet a             20.145755040 a.u.              548.1941 eV
     Dipole Oscillator Strength                    0.0144933656
  Root  25 singlet a             20.237366970 a.u.              550.6870 eV
     Dipole Oscillator Strength                    0.0226018097
  Root  26 singlet a             20.260782466 a.u.              551.3242 eV
     Dipole Oscillator Strength                    0.0000516763
  Root  27 singlet a             20.359047409 a.u.              553.9981 eV
     Dipole Oscillator Strength                    0.0139597401
  Root  28 singlet a             20.359047409 a.u.              553.9981 eV
     Dipole Oscillator Strength                    0.0139597401
  Root  29 singlet a             20.463097999 a.u.              556.8295 eV
     Dipole Oscillator Strength                    0.0141837580
  Root  30 singlet a             20.464243158 a.u.              556.8606 eV
     Dipole Oscillator Strength                    0.0000000000
 Total times  cpu:       33.5s     wall:       33.9s
