============================== echo of input deck ==============================
echo
start co_core

title co_core

memory 1000 mb

geometry units angstrom noautosym nocenter
 O 0       0        0
 C 0       0.00     1.15
end

basis
  * library aug-cc-pvtz
end

dft
  xc b3lyp
end
task dft optimize

dft
  xc beckehandh
end
task dft

tddft
  cis
  ecut -15
  nroots 30
  notriplet
  thresh 1e-03
end
task tddft
================================================================================

         Total DFT energy =     -113.359663756453
@ Step       Energy      Delta E   Gmax     Grms     Xrms     Xmax   Walltime
@ ---- ---------------- -------- -------- -------- -------- -------- --------
@    0    -113.35966376  0.0D+00  0.05369  0.05369  0.00000  0.00000     19.6
         Total DFT energy =     -113.359859468400
         Total DFT energy =     -113.360939485027
@    1    -113.36093949 -1.3D-03  0.00133  0.00133  0.01304  0.02258     43.5
         Total DFT energy =     -113.360940099411

 Vector    2  Occ=2.000000D+00  E=-1.029703D+01

 Vector    3  Occ=2.000000D+00  E=-1.174964D+00

 Vector    4  Occ=2.000000D+00  E=-5.847016D-01

 Vector    5  Occ=2.000000D+00  E=-4.858623D-01

 Vector    6  Occ=2.000000D+00  E=-4.858623D-01

 Vector    7  Occ=2.000000D+00  E=-3.865192D-01

 Vector    8  Occ=0.000000D+00  E=-4.042526D-02

 Vector    9  Occ=0.000000D+00  E=-4.042526D-02

 Vector   10  Occ=0.000000D+00  E= 1.918615D-02

 Vector   11  Occ=0.000000D+00  E= 3.936448D-02

 Vector   12  Occ=0.000000D+00  E= 5.155676D-02

 Vector   13  Occ=0.000000D+00  E= 5.155676D-02

 Vector   14  Occ=0.000000D+00  E= 1.095952D-01

 Vector   15  Occ=0.000000D+00  E= 1.365124D-01

 Vector   16  Occ=0.000000D+00  E= 1.365124D-01

 Vector   17  Occ=0.000000D+00  E= 1.863426D-01

 Vector   18  Occ=0.000000D+00  E= 2.071198D-01

 Vector   19  Occ=0.000000D+00  E= 2.071199D-01

 Vector   20  Occ=0.000000D+00  E= 2.274284D-01

 Vector   21  Occ=0.000000D+00  E= 2.894576D-01

 Vector   22  Occ=0.000000D+00  E= 2.894576D-01

 Vector   23  Occ=0.000000D+00  E= 2.897299D-01

 Vector   24  Occ=0.000000D+00  E= 3.489324D-01

 Vector   25  Occ=0.000000D+00  E= 3.489324D-01

 Vector   26  Occ=0.000000D+00  E= 3.985342D-01

 Vector   27  Occ=0.000000D+00  E= 5.378851D-01

         Total DFT energy =   -113.360940099411
@    2    -113.36094010 -6.1D-07  0.00000  0.00000  0.00033  0.00057     59.9
@    2    -113.36094010 -6.1D-07  0.00000  0.00000  0.00033  0.00057     59.9

 Output coordinates in angstroms (scale by  1.889725989 to convert to a.u.)

  No.       Tag          Charge          X              Y              Z
 ---- ---------------- ---------- -------------- -------------- --------------
    1 O                    8.0000     0.00000000     0.00000000     0.01225052
    2 C                    6.0000     0.00000000     0.00000000     1.13774948

         Total DFT energy =     -112.616925182564

 Vector    1  Occ=2.000000D+00  E=-1.969071D+01

 Vector    2  Occ=2.000000D+00  E=-1.063038D+01

 Vector    3  Occ=2.000000D+00  E=-1.299948D+00

 Vector    4  Occ=2.000000D+00  E=-6.627242D-01

 Vector    5  Occ=2.000000D+00  E=-5.430465D-01

 Vector    6  Occ=2.000000D+00  E=-5.430465D-01

 Vector    7  Occ=2.000000D+00  E=-4.431252D-01

 Vector    8  Occ=0.000000D+00  E= 2.125500D-02

 Vector    9  Occ=0.000000D+00  E= 2.125500D-02

 Vector   10  Occ=0.000000D+00  E= 4.525541D-02

 Vector   11  Occ=0.000000D+00  E= 6.012495D-02

 Vector   12  Occ=0.000000D+00  E= 8.098324D-02

 Vector   13  Occ=0.000000D+00  E= 8.098324D-02

 Vector   14  Occ=0.000000D+00  E= 1.358294D-01

 Vector   15  Occ=0.000000D+00  E= 1.654880D-01

 Vector   16  Occ=0.000000D+00  E= 1.654880D-01

 Vector   17  Occ=0.000000D+00  E= 2.207843D-01

 Vector   18  Occ=0.000000D+00  E= 2.473037D-01

 Vector   19  Occ=0.000000D+00  E= 2.473038D-01

 Vector   20  Occ=0.000000D+00  E= 2.598225D-01

 Vector   21  Occ=0.000000D+00  E= 3.265466D-01

 Vector   22  Occ=0.000000D+00  E= 3.338600D-01

 Vector   23  Occ=0.000000D+00  E= 3.338600D-01

 Vector   24  Occ=0.000000D+00  E= 3.915373D-01

 Vector   25  Occ=0.000000D+00  E= 3.915373D-01

 Vector   26  Occ=0.000000D+00  E= 4.421166D-01

 Vector   27  Occ=0.000000D+00  E= 6.063278D-01

         Total DFT energy =     -112.616925193741

                       DFT Final Molecular Orbital Analysis
                       ------------------------------------

 Vector    1  Occ=2.000000D+00  E=-1.969071D+01

 Vector    2  Occ=2.000000D+00  E=-1.063038D+01

 Vector    3  Occ=2.000000D+00  E=-1.299946D+00

 Vector    4  Occ=2.000000D+00  E=-6.627192D-01

 Vector    5  Occ=2.000000D+00  E=-5.430444D-01

 Vector    6  Occ=2.000000D+00  E=-5.430444D-01

 Vector    7  Occ=2.000000D+00  E=-4.431246D-01

 Vector    8  Occ=0.000000D+00  E= 2.125598D-02

 Vector    9  Occ=0.000000D+00  E= 2.125598D-02

 Vector   10  Occ=0.000000D+00  E= 4.525582D-02

 Vector   11  Occ=0.000000D+00  E= 6.012514D-02

 Vector   12  Occ=0.000000D+00  E= 8.098382D-02

 Vector   13  Occ=0.000000D+00  E= 8.098382D-02

 Vector   14  Occ=0.000000D+00  E= 1.358301D-01

 Vector   15  Occ=0.000000D+00  E= 1.654887D-01

 Vector   16  Occ=0.000000D+00  E= 1.654887D-01

 Vector   17  Occ=0.000000D+00  E= 2.207850D-01

 Vector   18  Occ=0.000000D+00  E= 2.473036D-01

 Vector   19  Occ=0.000000D+00  E= 2.473037D-01

 Vector   20  Occ=0.000000D+00  E= 2.598224D-01

 Vector   21  Occ=0.000000D+00  E= 3.265469D-01

 Vector   22  Occ=0.000000D+00  E= 3.338600D-01

 Vector   23  Occ=0.000000D+00  E= 3.338600D-01

 Vector   24  Occ=0.000000D+00  E= 3.915375D-01

 Vector   25  Occ=0.000000D+00  E= 3.915375D-01

 Vector   26  Occ=0.000000D+00  E= 4.421172D-01

 Vector   27  Occ=0.000000D+00  E= 6.063292D-01

     Multipole analysis of the density
     ---------------------------------

     L   x y z        total         alpha         beta         nuclear
     -   - - -        -----         -----         ----         -------
     0   0 0 0      0.000000     -7.000000     -7.000000     14.000000

     1   1 0 0      0.000000      0.000000      0.000000      0.000000
     1   0 1 0      0.000000      0.000000      0.000000      0.000000
     1   0 0 1      0.001093     -6.542158     -6.542158     13.085410

     2   2 0 0     -7.658449     -3.829224     -3.829224      0.000000
     2   1 1 0      0.000000      0.000000      0.000000      0.000000
     2   1 0 1      0.000000      0.000000      0.000000      0.000000
     2   0 2 0     -7.658449     -3.829224     -3.829224      0.000000
     2   0 1 1      0.000000      0.000000      0.000000      0.000000

  Root   1 singlet a             19.446988682 a.u.              529.1797 eV
     Dipole Oscillator Strength                         0.04429
  Root   2 singlet a             19.446988682 a.u.              529.1797 eV
     Dipole Oscillator Strength                         0.04429
  Root   3 singlet a             19.625944110 a.u.              534.0493 eV
     Dipole Oscillator Strength                         0.00190
  Root   4 singlet a             19.673503072 a.u.              535.3435 eV
     Dipole Oscillator Strength                         0.00026
  Root   5 singlet a             19.673503073 a.u.              535.3435 eV
     Dipole Oscillator Strength                         0.00026
  Root   6 singlet a             19.675822286 a.u.              535.4066 eV
     Dipole Oscillator Strength                         0.00003
  Root   7 singlet a             19.725158975 a.u.              536.7491 eV
     Dipole Oscillator Strength                         0.00260
  Root   8 singlet a             19.744329013 a.u.              537.2708 eV
     Dipole Oscillator Strength                         0.00530
  Root   9 singlet a             19.744329013 a.u.              537.2708 eV
     Dipole Oscillator Strength                         0.00530
  Root  10 singlet a             19.790117088 a.u.              538.5167 eV
     Dipole Oscillator Strength                         0.00009
  Root  11 singlet a             19.815852087 a.u.              539.2170 eV
     Dipole Oscillator Strength                         0.00000
  Root  12 singlet a             19.815852130 a.u.              539.2170 eV
     Dipole Oscillator Strength                         0.00000
  Root  13 singlet a             19.859346925 a.u.              540.4006 eV
     Dipole Oscillator Strength                         0.00131
  Root  14 singlet a             19.896868920 a.u.              541.4216 eV
     Dipole Oscillator Strength                         0.01246
  Root  15 singlet a             19.915253711 a.u.              541.9219 eV
     Dipole Oscillator Strength                         0.00097
  Root  16 singlet a             19.915253711 a.u.              541.9219 eV
     Dipole Oscillator Strength                         0.00097
  Root  17 singlet a             19.954626236 a.u.              542.9932 eV
     Dipole Oscillator Strength                         0.00317
  Root  18 singlet a             19.954626236 a.u.              542.9932 eV
     Dipole Oscillator Strength                         0.00317
  Root  19 singlet a             19.991429002 a.u.              543.9947 eV
     Dipole Oscillator Strength                         0.00630
  Root  20 singlet a             20.079763267 a.u.              546.3984 eV
     Dipole Oscillator Strength                         0.01428
  Root  21 singlet a             20.142304026 a.u.              548.1002 eV
     Dipole Oscillator Strength                         0.00000
  Root  22 singlet a             20.142304062 a.u.              548.1002 eV
     Dipole Oscillator Strength                         0.00000
  Root  23 singlet a             20.145755040 a.u.              548.1941 eV
     Dipole Oscillator Strength                         0.01449
  Root  24 singlet a             20.145755040 a.u.              548.1941 eV
     Dipole Oscillator Strength                         0.01449
  Root  25 singlet a             20.237366969 a.u.              550.6870 eV
     Dipole Oscillator Strength                         0.02260
  Root  26 singlet a             20.260782465 a.u.              551.3242 eV
     Dipole Oscillator Strength                         0.00005
  Root  27 singlet a             20.359047409 a.u.              553.9981 eV
     Dipole Oscillator Strength                         0.01396
  Root  28 singlet a             20.359047409 a.u.              553.9981 eV
     Dipole Oscillator Strength                         0.01396
  Root  29 singlet a             20.463097999 a.u.              556.8295 eV
     Dipole Oscillator Strength                         0.01418
  Root  30 singlet a             20.464243158 a.u.              556.8606 eV
     Dipole Oscillator Strength                         0.00000
 Total times  cpu:      145.6s     wall:      179.3s
