============================== echo of input deck ==============================
echo
start cosmo_h2o_dft_dat
title "cosmo_h2o_dft"

geometry nocenter noautosym noautoz
  H    0.290  -1.478   2.133
  O   -0.526  -1.642   2.602
  H   -0.729  -0.989   3.278
end

basis noprint
  * library 6-31G
end

dft
  print medium cosmo_energies
  xc hfexch
  iterations 200
  noio
  direct
  GRID nodisk
end

cosmo
  minbem 2
  maxbem 3
end

property
  efield
end

set dft:xcreplicated f
set fock:replicated .false.

task dft property
================================================================================

 Output coordinates in angstroms (scale by  1.889725989 to convert to a.u.)

  No.       Tag          Charge          X              Y              Z
 ---- ---------------- ---------- -------------- -------------- --------------
    1 H                    1.0000     0.29000000    -1.47800000     2.13300000
    2 O                    8.0000    -0.52600000    -1.64200000     2.60200000
    3 H                    1.0000    -0.72900000    -0.98900000     3.27800000

         Total DFT energy =      -76.000827764211

                       DFT Final Molecular Orbital Analysis
                       ------------------------------------

 Vector    1  Occ=2.000000D+00  E=-2.055208D+01

 Vector    2  Occ=2.000000D+00  E=-1.342538D+00

 Vector    3  Occ=2.000000D+00  E=-7.219693D-01

 Vector    4  Occ=2.000000D+00  E=-5.520180D-01

 Vector    5  Occ=2.000000D+00  E=-5.009275D-01

 Vector    6  Occ=0.000000D+00  E= 2.272827D-01

 Vector    7  Occ=0.000000D+00  E= 3.263938D-01

 Vector    8  Occ=0.000000D+00  E= 1.121124D+00

 Vector    9  Occ=0.000000D+00  E= 1.149713D+00

 Vector   10  Occ=0.000000D+00  E= 1.160383D+00

 Vector   11  Occ=0.000000D+00  E= 1.187319D+00

 Vector   12  Occ=0.000000D+00  E= 1.387026D+00

 Vector   13  Occ=0.000000D+00  E= 1.673988D+00

     Multipole analysis of the density
     ---------------------------------

     L   x y z        total         alpha         beta         nuclear
     -   - - -        -----         -----         ----         -------
     0   0 0 0     -0.000000     -5.000000     -5.000000     10.000000

     1   1 0 0      0.629166      4.705361      4.705361     -8.781557
     1   0 1 0      0.833922     15.159658     15.159658    -29.485395
     1   0 0 1      0.208527    -24.676658    -24.676658     49.561844

     2   2 0 0     -5.149070     -7.625714     -7.625714     10.102359
     2   1 1 0     -2.802131    -14.260284    -14.260284     25.718437
     2   1 0 1      1.776147     23.600593     23.600593    -45.425038
     2   0 2 0     -9.631123    -48.975195    -48.975195     88.319266
     2   0 1 1      4.215708     74.554728     74.554728   -144.893749

 Total times  cpu:        0.4s     wall:        0.5s
