============================== echo of input deck ==============================
echo
title "Trichloroethene BLYP/DZVP2 solvated (UA Radii)"

start trichloro_dat

charge 0

geometry  nocenter noautosym
C                      -0.432708   -0.106760   -0.000110
C                       0.651851   -0.916931    0.000102
Cl                     -2.050484   -0.814197   -0.000276
Cl                     -0.368033    1.642387   -0.000113
Cl                      2.309119   -0.349158    0.000383
H                       0.544897   -2.001406    0.000149
end

basis "ao basis" print
H  library "DZVP2 (DFT Orbital)"
C  library "DZVP2 (DFT Orbital)"
Cl library "DZVP2 (DFT Orbital)"
end

dft
   mult 1
   xc becke88 lyp
   convergence lshift 0.05
   iterations 5000
   print cosmo_energies
end
task dft optimize
cosmo
  lineq  0
  radius 1.962
         2.178
         2.376
         2.376
         2.376
         0.000
end
task dft energy

================================================================================

         Total DFT energy =    -1457.336319956076
@ Step       Energy      Delta E   Gmax     Grms     Xrms     Xmax   Walltime
@ ---- ---------------- -------- -------- -------- -------- -------- --------
@    0   -1457.33631996  0.0D+00  0.00023  0.00007  0.00000  0.00000      3.8
         Total DFT energy =    -1457.336320174321
         Total DFT energy =  -1457.336320174321
@    1   -1457.33632017 -2.2D-07  0.00013  0.00004  0.00030  0.00074      5.8
@    1   -1457.33632017 -2.2D-07  0.00013  0.00004  0.00030  0.00074      5.8

 Output coordinates in angstroms (scale by  1.889725989 to convert to a.u.)

  No.       Tag          Charge          X              Y              Z
 ---- ---------------- ---------- -------------- -------------- --------------
    1 C                    6.0000    -0.43261233    -0.10647585    -0.00009150
    2 C                    6.0000     0.65186199    -0.91692104     0.00011269
    3 Cl                  17.0000    -2.05021962    -0.81422910    -0.00028817
    4 Cl                  17.0000    -0.36842447     1.64235226    -0.00011714
    5 Cl                  17.0000     2.30930861    -0.34940990     0.00037257
    6 H                    1.0000     0.54472782    -2.00138136     0.00014654

         Total DFT energy =    -1457.339354088153

                       DFT Final Molecular Orbital Analysis
                       ------------------------------------

 Vector    1  Occ=2.000000D+00  E=-1.007930D+02

 Vector   13  Occ=2.000000D+00  E=-7.036693D+00

 Vector   14  Occ=2.000000D+00  E=-7.034471D+00

 Vector   15  Occ=2.000000D+00  E=-7.034240D+00

 Vector   16  Occ=2.000000D+00  E=-7.029366D+00

 Vector   17  Occ=2.000000D+00  E=-7.028361D+00

 Vector   18  Occ=2.000000D+00  E=-8.492241D-01

 Vector   19  Occ=2.000000D+00  E=-7.975340D-01

 Vector   20  Occ=2.000000D+00  E=-7.733397D-01

 Vector   21  Occ=2.000000D+00  E=-6.652979D-01

 Vector   22  Occ=2.000000D+00  E=-5.195655D-01

 Vector   23  Occ=2.000000D+00  E=-4.554881D-01

 Vector   24  Occ=2.000000D+00  E=-4.409435D-01

 Vector   25  Occ=2.000000D+00  E=-3.832146D-01

 Vector   26  Occ=2.000000D+00  E=-3.763952D-01

 Vector   27  Occ=2.000000D+00  E=-3.184399D-01

 Vector   28  Occ=2.000000D+00  E=-3.117156D-01

 Vector   29  Occ=2.000000D+00  E=-3.000760D-01

 Vector   30  Occ=2.000000D+00  E=-2.918981D-01

 Vector   31  Occ=2.000000D+00  E=-2.809497D-01

 Vector   32  Occ=2.000000D+00  E=-2.257877D-01

 Vector   33  Occ=0.000000D+00  E=-6.118369D-02

 Vector   34  Occ=0.000000D+00  E=-5.556894D-02

 Vector   35  Occ=0.000000D+00  E=-4.100642D-02

 Vector   36  Occ=0.000000D+00  E= 3.596708D-02

 Vector   37  Occ=0.000000D+00  E= 1.082142D-01

 Vector   38  Occ=0.000000D+00  E= 1.546413D-01

 Vector   39  Occ=0.000000D+00  E= 1.785749D-01

 Vector   40  Occ=0.000000D+00  E= 1.862873D-01

 Vector   41  Occ=0.000000D+00  E= 2.141301D-01

 Vector   42  Occ=0.000000D+00  E= 2.273942D-01

 Vector   43  Occ=0.000000D+00  E= 2.595749D-01

 Vector   44  Occ=0.000000D+00  E= 2.882925D-01

 Vector   45  Occ=0.000000D+00  E= 3.003647D-01

 Vector   46  Occ=0.000000D+00  E= 3.276839D-01

 Vector   47  Occ=0.000000D+00  E= 3.368434D-01

 Vector   48  Occ=0.000000D+00  E= 3.444083D-01

 Vector   49  Occ=0.000000D+00  E= 3.588108D-01

 Vector   50  Occ=0.000000D+00  E= 3.749810D-01

 Vector   51  Occ=0.000000D+00  E= 3.788042D-01

 Vector   52  Occ=0.000000D+00  E= 3.897242D-01

 Vector   53  Occ=0.000000D+00  E= 4.089654D-01

 Vector   54  Occ=0.000000D+00  E= 4.604594D-01

 Vector   55  Occ=0.000000D+00  E= 6.512322D-01

 Vector   56  Occ=0.000000D+00  E= 7.065437D-01

 Vector   57  Occ=0.000000D+00  E= 7.141661D-01

 Vector   58  Occ=0.000000D+00  E= 7.423099D-01

 Vector   59  Occ=0.000000D+00  E= 7.504789D-01

 Vector   60  Occ=0.000000D+00  E= 7.616241D-01

 Vector   61  Occ=0.000000D+00  E= 7.833613D-01

 Vector   62  Occ=0.000000D+00  E= 7.865505D-01

 Vector   63  Occ=0.000000D+00  E= 7.889754D-01

 Vector   64  Occ=0.000000D+00  E= 7.928934D-01

 Vector   65  Occ=0.000000D+00  E= 8.054930D-01

 Vector   66  Occ=0.000000D+00  E= 8.101103D-01

 Vector   67  Occ=0.000000D+00  E= 8.326152D-01

 Vector   68  Occ=0.000000D+00  E= 8.396984D-01

 Vector   69  Occ=0.000000D+00  E= 8.486723D-01

 Vector   70  Occ=0.000000D+00  E= 8.987413D-01

 Vector   71  Occ=0.000000D+00  E= 9.423959D-01

 Vector   72  Occ=0.000000D+00  E= 1.013127D+00

 Vector   73  Occ=0.000000D+00  E= 1.048052D+00

 Vector   74  Occ=0.000000D+00  E= 1.057715D+00

 Vector   75  Occ=0.000000D+00  E= 1.086509D+00

 Vector   76  Occ=0.000000D+00  E= 1.206955D+00

 Vector   77  Occ=0.000000D+00  E= 1.332658D+00

 Vector   78  Occ=0.000000D+00  E= 1.379989D+00

 Vector   79  Occ=0.000000D+00  E= 1.511963D+00

 Vector   80  Occ=0.000000D+00  E= 1.587025D+00

 Vector   81  Occ=0.000000D+00  E= 1.706172D+00

 Vector   82  Occ=0.000000D+00  E= 1.712625D+00

 Vector   83  Occ=0.000000D+00  E= 1.848591D+00

 Vector   84  Occ=0.000000D+00  E= 1.872934D+00

 Vector   85  Occ=0.000000D+00  E= 2.055607D+00

 Vector   86  Occ=0.000000D+00  E= 2.244235D+00

 Vector   87  Occ=0.000000D+00  E= 2.558898D+00

 Vector   88  Occ=0.000000D+00  E= 2.710692D+00

 Vector   89  Occ=0.000000D+00  E= 3.069658D+00

 Vector   90  Occ=0.000000D+00  E= 4.005651D+00

 Vector   91  Occ=0.000000D+00  E= 4.142989D+00

 Vector   92  Occ=0.000000D+00  E= 4.222479D+00

     Multipole analysis of the density
     ---------------------------------

     L   x y z        total         alpha         beta         nuclear
     -   - - -        -----         -----         ----         -------
     0   0 0 0     -0.000000    -32.000000    -32.000000     64.000000

     1   1 0 0     -0.012787     -0.007832     -0.007832      0.002877
     1   0 1 0     -0.511033     -0.252080     -0.252080     -0.006874
     1   0 0 1      0.000028      0.000281      0.000281     -0.000534

     2   2 0 0    -37.701482   -319.523518   -319.523518    601.345554
     2   1 1 0      0.068963      0.078709      0.078709     -0.088455
     2   1 0 1     -0.000026     -0.046726     -0.046726      0.093426
     2   0 2 0    -34.024256   -138.996879   -138.996879    243.969501
     2   0 1 1     -0.000115      0.004137      0.004137     -0.008390

 Total times  cpu:        8.3s     wall:        8.5s
