============================== echo of input deck ==============================
echo
title "M06-L/LanL2DZ ECP Cu2  "

start cu2

geometry
Cu 0.0 0.0 0.0
Cu 0.0 0.0 2.259
end

basis
* library "LANL2DZ ECP"
end

ecp
* library "LANL2DZ ECP"
end

dft
print "final vectors analysis"
xc m06-L
mult 1
grid fine
tolerances tight
iterations 40
end

task dft
================================================================================

 Output coordinates in angstroms (scale by  1.889725989 to convert to a.u.)

  No.       Tag          Charge          X              Y              Z
 ---- ---------------- ---------- -------------- -------------- --------------
    1 Cu                  29.0000     0.00000000     0.00000000    -1.12950000
    2 Cu                  29.0000     0.00000000     0.00000000     1.12950000

         Total DFT energy =     -392.328023711573

                       DFT Final Molecular Orbital Analysis
                       ------------------------------------

 Vector    1  Occ=2.000000D+00  E=-4.234165D+00  Symmetry=a1g

 Vector    2  Occ=2.000000D+00  E=-4.233729D+00  Symmetry=a2u

 Vector    3  Occ=2.000000D+00  E=-2.726414D+00  Symmetry=a1g

 Vector    4  Occ=2.000000D+00  E=-2.723067D+00  Symmetry=a2u

 Vector    5  Occ=2.000000D+00  E=-2.719618D+00  Symmetry=eu

 Vector    6  Occ=2.000000D+00  E=-2.719618D+00  Symmetry=eu

 Vector    7  Occ=2.000000D+00  E=-2.719306D+00  Symmetry=eg

 Vector    8  Occ=2.000000D+00  E=-2.719306D+00  Symmetry=eg

 Vector    9  Occ=2.000000D+00  E=-2.063414D-01  Symmetry=a1g

 Vector   10  Occ=2.000000D+00  E=-1.862698D-01  Symmetry=eu

 Vector   11  Occ=2.000000D+00  E=-1.862698D-01  Symmetry=eu

 Vector   12  Occ=2.000000D+00  E=-1.679247D-01  Symmetry=a1g

 Vector   13  Occ=2.000000D+00  E=-1.675817D-01  Symmetry=b2g

 Vector   14  Occ=2.000000D+00  E=-1.675817D-01  Symmetry=b1g

 Vector   15  Occ=2.000000D+00  E=-1.607134D-01  Symmetry=b2u

 Vector   16  Occ=2.000000D+00  E=-1.607134D-01  Symmetry=b1u

 Vector   17  Occ=2.000000D+00  E=-1.555552D-01  Symmetry=eg

 Vector   18  Occ=2.000000D+00  E=-1.555552D-01  Symmetry=eg

 Vector   19  Occ=2.000000D+00  E=-1.544935D-01  Symmetry=a2u

 Vector   20  Occ=0.000000D+00  E=-7.818636D-02  Symmetry=a2u

 Vector   21  Occ=0.000000D+00  E=-4.064254D-03  Symmetry=eu

 Vector   22  Occ=0.000000D+00  E=-4.064254D-03  Symmetry=eu

 Vector   23  Occ=0.000000D+00  E= 8.178481D-03  Symmetry=a1g

 Vector   24  Occ=0.000000D+00  E= 1.021453D-02  Symmetry=a2u

 Vector   25  Occ=0.000000D+00  E= 3.658734D-02  Symmetry=eg

 Vector   26  Occ=0.000000D+00  E= 3.658734D-02  Symmetry=eg

 Vector   27  Occ=0.000000D+00  E= 6.310498D-02  Symmetry=eu

 Vector   28  Occ=0.000000D+00  E= 6.310498D-02  Symmetry=eu

 Vector   29  Occ=0.000000D+00  E= 8.071290D-02  Symmetry=a1g

 Vector   30  Occ=0.000000D+00  E= 1.358456D-01  Symmetry=eg

 Vector   31  Occ=0.000000D+00  E= 1.358456D-01  Symmetry=eg

 Vector   32  Occ=0.000000D+00  E= 2.194630D-01  Symmetry=a2u

 Vector   33  Occ=0.000000D+00  E= 2.577851D-01  Symmetry=a1g

 Vector   34  Occ=0.000000D+00  E= 4.296873D-01  Symmetry=a2u

 Vector   35  Occ=0.000000D+00  E= 7.161015D-01  Symmetry=eu

 Vector   36  Occ=0.000000D+00  E= 7.161015D-01  Symmetry=eu

 Vector   37  Occ=0.000000D+00  E= 7.674432D-01  Symmetry=b1g

 Vector   38  Occ=0.000000D+00  E= 7.674434D-01  Symmetry=b2g

 Vector   39  Occ=0.000000D+00  E= 8.681380D-01  Symmetry=b2u

 Vector   40  Occ=0.000000D+00  E= 8.681383D-01  Symmetry=b1u

 Vector   41  Occ=0.000000D+00  E= 8.958394D-01  Symmetry=a1g

 Vector   42  Occ=0.000000D+00  E= 1.068766D+00  Symmetry=eg

 Vector   43  Occ=0.000000D+00  E= 1.068766D+00  Symmetry=eg

 Vector   44  Occ=0.000000D+00  E= 1.078022D+00  Symmetry=a2u

 Vector   45  Occ=0.000000D+00  E= 2.537131D+00  Symmetry=a1g

 Vector   46  Occ=0.000000D+00  E= 5.957134D+00  Symmetry=a2u

 Vector   47  Occ=0.000000D+00  E= 2.760917D+01  Symmetry=a1g

 Vector   48  Occ=0.000000D+00  E= 3.240869D+01  Symmetry=a2u

     Multipole analysis of the density
     ---------------------------------

     L   x y z        total         alpha         beta         nuclear
     -   - - -        -----         -----         ----         -------
     0   0 0 0     -0.000000    -19.000000    -19.000000     38.000000

     1   1 0 0      0.000000      0.000000      0.000000      0.000000
     1   0 1 0      0.000000      0.000000      0.000000      0.000000
     1   0 0 1     -0.000000     -0.000000     -0.000000      0.000000

     2   2 0 0    -19.825643     -9.912822     -9.912822      0.000000
     2   1 1 0     -0.000000     -0.000000     -0.000000      0.000000
     2   1 0 1      0.000000      0.000000      0.000000      0.000000
     2   0 2 0    -19.825643     -9.912822     -9.912822      0.000000
     2   0 1 1      0.000000      0.000000      0.000000      0.000000

 Total times  cpu:        6.5s     wall:       12.6s
