============================== echo of input deck ==============================
echo
title "ch4+ mpw1k from S. Parthiban and J.M.L. Martin JCP 114,6014-6029 (2001)"
start dft_mpw1k

geometry
 C      -0.17835627    -0.07079230     0.00000000
 H       0.60168160    -0.93456635     0.00000000
 H      -0.51729906    -1.18414149     0.00000000
 H      -0.28986450     0.42953812     0.94477639
 H      -0.28986450     0.42953812    -0.94477639
end
charge 1d0
basis
* library cc-pvtz
end

dft
xc mpw1k
mult 2
end

task dft optimize
================================================================================

         Total DFT energy =      -40.059462906547
@ Step       Energy      Delta E   Gmax     Grms     Xrms     Xmax   Walltime
@ ---- ---------------- -------- -------- -------- -------- -------- --------
@    0     -40.05946291  0.0D+00  0.00547  0.00293  0.00000  0.00000      1.3
         Total DFT energy =      -40.059786085944
         Total DFT energy =      -40.059806673460
@    1     -40.05980667 -3.4D-04  0.00123  0.00076  0.01970  0.03917      2.9
         Total DFT energy =      -40.059832422196
         Total DFT energy =      -40.059835734442
@    2     -40.05983573 -2.9D-05  0.00054  0.00033  0.00360  0.00769      4.4
         Total DFT energy =      -40.059839580942
         Total DFT energy =    -40.059839580942
@    3     -40.05983958 -3.8D-06  0.00018  0.00010  0.00168  0.00269      5.3
         Total DFT energy =      -40.059839981424

                    DFT Final Alpha Molecular Orbital Analysis
                    ------------------------------------------

 Vector    1  Occ=1.000000D+00  E=-1.086902D+01  Symmetry=a1

 Vector   16  Occ=0.000000D+00  E= 2.380512D-01  Symmetry=a1

 Vector   17  Occ=0.000000D+00  E= 2.551232D-01  Symmetry=b2

 Vector   18  Occ=0.000000D+00  E= 2.894913D-01  Symmetry=a2

 Vector   19  Occ=0.000000D+00  E= 5.009852D-01  Symmetry=a1

 Vector   20  Occ=0.000000D+00  E= 5.540209D-01  Symmetry=b2

 Vector   21  Occ=0.000000D+00  E= 6.117040D-01  Symmetry=b1

 Vector   22  Occ=0.000000D+00  E= 6.234818D-01  Symmetry=b2

 Vector   23  Occ=0.000000D+00  E= 6.436308D-01  Symmetry=a2

 Vector   24  Occ=0.000000D+00  E= 6.628159D-01  Symmetry=a1

 Vector   25  Occ=0.000000D+00  E= 7.361915D-01  Symmetry=a1

 Vector   26  Occ=0.000000D+00  E= 7.776209D-01  Symmetry=b1

 Vector   27  Occ=0.000000D+00  E= 9.747923D-01  Symmetry=b1

 Vector   28  Occ=0.000000D+00  E= 9.765736D-01  Symmetry=a1

 Vector   29  Occ=0.000000D+00  E= 9.987894D-01  Symmetry=b2

 Vector   30  Occ=0.000000D+00  E= 1.008031D+00  Symmetry=a1

 Vector   31  Occ=0.000000D+00  E= 1.038073D+00  Symmetry=a1

 Vector   32  Occ=0.000000D+00  E= 1.081286D+00  Symmetry=b1

 Vector   33  Occ=0.000000D+00  E= 1.092586D+00  Symmetry=b2

 Vector   34  Occ=0.000000D+00  E= 1.107047D+00  Symmetry=a2

 Vector   35  Occ=0.000000D+00  E= 1.209597D+00  Symmetry=a1

 Vector   36  Occ=0.000000D+00  E= 1.518460D+00  Symmetry=b1

 Vector   37  Occ=0.000000D+00  E= 1.595639D+00  Symmetry=b2

 Vector   38  Occ=0.000000D+00  E= 1.847770D+00  Symmetry=a1

 Vector   39  Occ=0.000000D+00  E= 1.988027D+00  Symmetry=b1

 Vector   40  Occ=0.000000D+00  E= 2.187478D+00  Symmetry=b2

 Vector   41  Occ=0.000000D+00  E= 2.287895D+00  Symmetry=a1

 Vector   42  Occ=0.000000D+00  E= 2.423615D+00  Symmetry=b2

 Vector   43  Occ=0.000000D+00  E= 2.441276D+00  Symmetry=b1

 Vector   44  Occ=0.000000D+00  E= 2.466428D+00  Symmetry=a2

 Vector   45  Occ=0.000000D+00  E= 2.479645D+00  Symmetry=a1

 Vector   46  Occ=0.000000D+00  E= 2.598838D+00  Symmetry=a1

 Vector   47  Occ=0.000000D+00  E= 2.623182D+00  Symmetry=a2

 Vector   48  Occ=0.000000D+00  E= 2.631013D+00  Symmetry=b2

 Vector   49  Occ=0.000000D+00  E= 2.696474D+00  Symmetry=a1

 Vector   50  Occ=0.000000D+00  E= 2.737165D+00  Symmetry=b1

 Vector   51  Occ=0.000000D+00  E= 2.771923D+00  Symmetry=a1

 Vector   52  Occ=0.000000D+00  E= 2.870168D+00  Symmetry=b2

 Vector   53  Occ=0.000000D+00  E= 2.894073D+00  Symmetry=a1

 Vector   54  Occ=0.000000D+00  E= 2.916337D+00  Symmetry=b1

 Vector   55  Occ=0.000000D+00  E= 2.964446D+00  Symmetry=b2

 Vector   56  Occ=0.000000D+00  E= 3.031946D+00  Symmetry=a2

 Vector   57  Occ=0.000000D+00  E= 3.067113D+00  Symmetry=a1

 Vector   58  Occ=0.000000D+00  E= 3.402871D+00  Symmetry=b1

 Vector   59  Occ=0.000000D+00  E= 3.424125D+00  Symmetry=b1

 Vector   60  Occ=0.000000D+00  E= 3.466305D+00  Symmetry=b2

 Vector   61  Occ=0.000000D+00  E= 3.526534D+00  Symmetry=a1

 Vector   62  Occ=0.000000D+00  E= 3.535879D+00  Symmetry=a2

 Vector   63  Occ=0.000000D+00  E= 3.575943D+00  Symmetry=a2

 Vector   64  Occ=0.000000D+00  E= 3.596815D+00  Symmetry=b2

 Vector   65  Occ=0.000000D+00  E= 3.637603D+00  Symmetry=a1

 Vector   66  Occ=0.000000D+00  E= 3.675544D+00  Symmetry=b2

 Vector   67  Occ=0.000000D+00  E= 3.736520D+00  Symmetry=b1

 Vector   68  Occ=0.000000D+00  E= 3.776669D+00  Symmetry=b1

 Vector   69  Occ=0.000000D+00  E= 3.849530D+00  Symmetry=a1

 Vector   70  Occ=0.000000D+00  E= 4.037041D+00  Symmetry=a1

 Vector   71  Occ=0.000000D+00  E= 4.064847D+00  Symmetry=a2

 Vector   72  Occ=0.000000D+00  E= 4.126806D+00  Symmetry=b1

 Vector   73  Occ=0.000000D+00  E= 4.196564D+00  Symmetry=b1

 Vector   74  Occ=0.000000D+00  E= 4.214911D+00  Symmetry=b2

 Vector   75  Occ=0.000000D+00  E= 4.226283D+00  Symmetry=a1

 Vector   76  Occ=0.000000D+00  E= 4.419073D+00  Symmetry=a1

 Vector   77  Occ=0.000000D+00  E= 4.505449D+00  Symmetry=a2

 Vector   78  Occ=0.000000D+00  E= 4.527663D+00  Symmetry=b2

 Vector   79  Occ=0.000000D+00  E= 4.565641D+00  Symmetry=a1

 Vector   80  Occ=0.000000D+00  E= 4.577149D+00  Symmetry=b1

 Vector   81  Occ=0.000000D+00  E= 4.660960D+00  Symmetry=a1

 Vector   82  Occ=0.000000D+00  E= 4.840605D+00  Symmetry=b2

 Vector   83  Occ=0.000000D+00  E= 4.842259D+00  Symmetry=a1

 Vector   84  Occ=0.000000D+00  E= 4.896217D+00  Symmetry=a2

 Vector   85  Occ=0.000000D+00  E= 4.920561D+00  Symmetry=b1

 Vector   86  Occ=0.000000D+00  E= 5.606574D+00  Symmetry=b1

 Vector   87  Occ=0.000000D+00  E= 5.663145D+00  Symmetry=b2

 Vector   88  Occ=0.000000D+00  E= 5.791636D+00  Symmetry=b2

 Vector   89  Occ=0.000000D+00  E= 5.849882D+00  Symmetry=b1

 Vector   90  Occ=0.000000D+00  E= 5.934834D+00  Symmetry=a1

 Vector   91  Occ=0.000000D+00  E= 5.962287D+00  Symmetry=a1

 Vector   92  Occ=0.000000D+00  E= 6.418034D+00  Symmetry=b2

 Vector   93  Occ=0.000000D+00  E= 7.732000D+00  Symmetry=a1

 Vector   94  Occ=0.000000D+00  E= 8.419807D+00  Symmetry=a1

 Vector   95  Occ=0.000000D+00  E= 1.678762D+01  Symmetry=a1

     Multipole analysis of the density
     ---------------------------------

     L   x y z        total         alpha         beta         nuclear
     -   - - -        -----         -----         ----         -------
     0   0 0 0      1.000000     -5.000000     -4.000000     10.000000

     1   1 0 0      0.000000      0.000000      0.000000      0.000000
     1   0 1 0     -0.000000      0.000000     -0.000000      0.000000
     1   0 0 1      0.565343      0.145745      0.578606     -0.159009

     2   2 0 0     -4.363446     -4.392488     -2.155484      2.184526
     2   1 1 0     -0.000000     -0.000000     -0.000000      0.000000
     2   1 0 1      0.000000      0.000000      0.000000      0.000000
     2   0 2 0     -3.707722     -5.342762     -4.885084      6.520124
     2   0 1 1     -0.000000     -0.000000      0.000000      0.000000

         Total DFT energy =    -40.059839981424
@    4     -40.05983998 -4.0D-07  0.00001  0.00000  0.00068  0.00114      6.1
@    4     -40.05983998 -4.0D-07  0.00001  0.00000  0.00068  0.00114      6.1

 Output coordinates in angstroms (scale by  1.889725989 to convert to a.u.)

  No.       Tag          Charge          X              Y              Z
 ---- ---------------- ---------- -------------- -------------- --------------
    1 C                    6.0000     0.00000000     0.00000000    -0.11688061
    2 H                    1.0000     0.55305053     0.00000000     0.92443025
    3 H                    1.0000    -0.55305053     0.00000000     0.92443025
    4 H                    1.0000     0.00000000     0.95546351    -0.61586035
    5 H                    1.0000     0.00000000    -0.95546351    -0.61586035

 Total times  cpu:        5.8s     wall:        6.1s
