============================== echo of input deck ==============================
echo
title "test5 M05-2X/6-31+G*  NH2 + CH3 TS single point"
start dft_m05nh2ch3

geometry
C       -1.199577    -.011126    -.000030
N        1.400715     .129862     .000015
H       -1.426660    -.512932     .933057
H       -1.419907    -.591382    -.888143
H       -1.520237    1.022806    -.045783
H         .188926     .126896     .001001
H        1.570338    -.887667    -.000053
end

basis
* library 6-31++G**
end

dft
xc  m05-2x
mult 3
grid fine
end

task dft

================================================================================

 Output coordinates in angstroms (scale by  1.889725989 to convert to a.u.)

  No.       Tag          Charge          X              Y              Z
 ---- ---------------- ---------- -------------- -------------- --------------
    1 C                    6.0000     0.01894486     1.19947916    -0.00002200
    2 N                    7.0000     0.09471245    -1.40352975     0.00000423
    3 H                    1.0000    -0.47700421     1.43906203     0.93307063
    4 H                    1.0000    -0.55561339     1.43429021    -0.88812877
    5 H                    1.0000     1.06058897     1.49412331    -0.04578127
    6 H                    1.0000     0.12212079    -0.19204712     0.00099846
    7 H                    1.0000    -0.92674845    -1.54759517    -0.00005661

         Total DFT energy =      -95.685828264800

                    DFT Final Alpha Molecular Orbital Analysis
                    ------------------------------------------

 Vector    1  Occ=1.000000D+00  E=-1.484248D+01

 Vector   57  Occ=0.000000D+00  E= 2.569536D+00

 Vector   58  Occ=0.000000D+00  E= 2.638393D+00

 Vector   59  Occ=0.000000D+00  E= 2.799609D+00

 Vector   60  Occ=0.000000D+00  E= 2.847780D+00

 Vector   61  Occ=0.000000D+00  E= 2.877804D+00

 Vector   62  Occ=0.000000D+00  E= 3.159289D+00

 Vector   63  Occ=0.000000D+00  E= 3.317796D+00

 Vector   64  Occ=0.000000D+00  E= 3.461712D+00

 Vector   65  Occ=0.000000D+00  E= 3.465634D+00

 Vector   66  Occ=0.000000D+00  E= 3.539684D+00

 Vector   67  Occ=0.000000D+00  E= 4.010692D+00

 Vector   68  Occ=0.000000D+00  E= 4.524524D+00

 Vector    1  Occ=1.000000D+00  E=-1.481816D+01

 Vector    2  Occ=1.000000D+00  E=-1.058067D+01

 Vector    3  Occ=1.000000D+00  E=-8.740138D-01

 Vector    4  Occ=1.000000D+00  E=-7.739860D-01

 Vector    5  Occ=1.000000D+00  E=-4.983075D-01

 Vector    6  Occ=1.000000D+00  E=-4.880253D-01

 Vector    7  Occ=1.000000D+00  E=-4.825665D-01

 Vector    8  Occ=1.000000D+00  E=-3.725185D-01

 Vector    9  Occ=0.000000D+00  E=-5.476542D-02

 Vector   10  Occ=0.000000D+00  E=-5.074348D-02

 Vector   11  Occ=0.000000D+00  E= 3.623694D-02

 Vector   12  Occ=0.000000D+00  E= 7.166939D-02

 Vector   13  Occ=0.000000D+00  E= 8.007184D-02

 Vector   14  Occ=0.000000D+00  E= 8.534562D-02

 Vector   15  Occ=0.000000D+00  E= 1.173354D-01

 Vector   16  Occ=0.000000D+00  E= 1.367756D-01

 Vector   17  Occ=0.000000D+00  E= 1.532875D-01

 Vector   18  Occ=0.000000D+00  E= 1.567966D-01

 Vector   19  Occ=0.000000D+00  E= 1.790925D-01

 Vector   20  Occ=0.000000D+00  E= 2.117968D-01

 Vector   21  Occ=0.000000D+00  E= 2.215225D-01

 Vector   22  Occ=0.000000D+00  E= 2.281361D-01

 Vector   23  Occ=0.000000D+00  E= 2.733231D-01

 Vector   24  Occ=0.000000D+00  E= 2.750022D-01

 Vector   25  Occ=0.000000D+00  E= 2.775547D-01

 Vector   26  Occ=0.000000D+00  E= 3.172324D-01

 Vector   27  Occ=0.000000D+00  E= 3.598205D-01

 Vector   28  Occ=0.000000D+00  E= 4.647046D-01

 Vector   29  Occ=0.000000D+00  E= 7.382393D-01

 Vector   30  Occ=0.000000D+00  E= 7.474002D-01

 Vector   31  Occ=0.000000D+00  E= 8.008271D-01

 Vector   32  Occ=0.000000D+00  E= 9.934192D-01

 Vector   33  Occ=0.000000D+00  E= 9.992455D-01

 Vector   34  Occ=0.000000D+00  E= 1.025418D+00

 Vector   35  Occ=0.000000D+00  E= 1.031473D+00

 Vector   36  Occ=0.000000D+00  E= 1.050533D+00

 Vector   37  Occ=0.000000D+00  E= 1.091709D+00

 Vector   38  Occ=0.000000D+00  E= 1.107551D+00

 Vector   39  Occ=0.000000D+00  E= 1.179424D+00

 Vector   40  Occ=0.000000D+00  E= 1.287644D+00

 Vector   41  Occ=0.000000D+00  E= 1.410141D+00

 Vector   42  Occ=0.000000D+00  E= 1.461411D+00

 Vector   43  Occ=0.000000D+00  E= 1.535535D+00

 Vector   44  Occ=0.000000D+00  E= 1.606386D+00

 Vector   45  Occ=0.000000D+00  E= 1.618878D+00

 Vector   46  Occ=0.000000D+00  E= 1.699486D+00

 Vector   47  Occ=0.000000D+00  E= 1.859771D+00

 Vector   48  Occ=0.000000D+00  E= 2.082609D+00

 Vector   49  Occ=0.000000D+00  E= 2.084972D+00

 Vector   50  Occ=0.000000D+00  E= 2.114671D+00

 Vector   51  Occ=0.000000D+00  E= 2.214007D+00

 Vector   52  Occ=0.000000D+00  E= 2.303637D+00

 Vector   53  Occ=0.000000D+00  E= 2.308921D+00

 Vector   54  Occ=0.000000D+00  E= 2.463622D+00

 Vector   55  Occ=0.000000D+00  E= 2.505441D+00

 Vector   56  Occ=0.000000D+00  E= 2.577150D+00

 Vector   57  Occ=0.000000D+00  E= 2.600184D+00

 Vector   58  Occ=0.000000D+00  E= 2.646723D+00

 Vector   59  Occ=0.000000D+00  E= 2.807803D+00

 Vector   60  Occ=0.000000D+00  E= 2.857985D+00

 Vector   61  Occ=0.000000D+00  E= 2.888641D+00

 Vector   62  Occ=0.000000D+00  E= 3.179882D+00

 Vector   63  Occ=0.000000D+00  E= 3.365643D+00

 Vector   64  Occ=0.000000D+00  E= 3.512398D+00

 Vector   65  Occ=0.000000D+00  E= 3.516270D+00

 Vector   66  Occ=0.000000D+00  E= 3.574458D+00

 Vector   67  Occ=0.000000D+00  E= 4.071102D+00

 Vector   68  Occ=0.000000D+00  E= 4.551232D+00

     Multipole analysis of the density
     ---------------------------------

     L   x y z        total         alpha         beta         nuclear
     -   - - -        -----         -----         ----         -------
     0   0 0 0     -0.000000    -10.000000     -8.000000     18.000000

     1   1 0 0     -0.615704     -0.435535     -0.180169      0.000000
     1   0 1 0      0.523812      1.573221     -1.049408      0.000000
     1   0 0 1     -0.000013     -0.000097      0.000085      0.000000

     2   2 0 0    -10.476188    -10.296972     -9.463308      9.284092
     2   1 1 0      2.244799      0.155029     -0.473901      2.563672
     2   1 0 1     -0.001268     -0.000457     -0.000801     -0.000010
     2   0 2 0    -12.816210    -69.871186    -54.412929    111.467905
     2   0 1 1      0.000914      0.000098      0.000083      0.000733

 Total times  cpu:        3.3s     wall:        3.5s
