============================== echo of input deck ==============================
echo
start dft_bsse

charge 0

geometry  g0 autosym units angstrom
zmatrix
    H
    O    1 r2
    H    2 r3    1 a3
    variables
    r2 0.9637
    r3 0.8728
    a3  95.07
end
end
geometry  g1 autosym units angstrom
zmatrix
    H
    O    1 r2
    H    2 r3    1 a3
    X_O  3 r4    2 a4    1 d4
    X_H  4 r5    3 a5    2 d5
    X_H  4 r6    3 a6    2 d6
    variables
    r2 0.9637
    r3 0.8728
    a3  95.07
    r4 1.8441
    a4 172.11
    d4 179.97
    r5 0.9654
    a5 110.73
    d5  58.09
    r6 0.9654
    a6 110.73
    d6 301.91
end
end

basis "ao basis" spherical print
  H library "aug-cc-pVDZ"
  O library "aug-cc-pVDZ"
# bqH library H aug-cc-pVDZ
# bqO library O aug-cc-pVDZ
END

dft
  xc S12g
end

title "H2O"
set geometry g0
task dft
task dft optimize
task dft frequencies

title "H2O with Xs"
set geometry g1
task dft
task dft optimize
task dft frequencies
================================================================================

         Total DFT energy =      -76.420009404756
         Total DFT energy =    -76.420009404756
@ Step       Energy      Delta E   Gmax     Grms     Xrms     Xmax   Walltime
@ ---- ---------------- -------- -------- -------- -------- -------- --------
@    0     -76.42000940  0.0D+00  0.13613  0.07932  0.00000  0.00000      0.7
         Total DFT energy =      -76.429591135202
         Total DFT energy =      -76.432910647585
@    1     -76.43291065 -1.3D-02  0.00482  0.00382  0.07118  0.15783      1.4
         Total DFT energy =      -76.433111751454
         Total DFT energy =      -76.433117170146
@    2     -76.43311717 -2.1D-04  0.00124  0.00072  0.01463  0.02618      2.1
         Total DFT energy =      -76.433118600894
         Total DFT energy =    -76.433118600894
@    3     -76.43311860 -1.4D-06  0.00029  0.00018  0.00049  0.00097      2.4
@    3     -76.43311860 -1.4D-06  0.00029  0.00018  0.00049  0.00097      2.4
         Total DFT energy =      -76.433105959636
 Zero-Point correction to Energy  =   13.253 kcal/mol  (  0.021119 au)
 Thermal correction to Energy     =   15.031 kcal/mol  (  0.023954 au)
 Thermal correction to Enthalpy   =   15.623 kcal/mol  (  0.024897 au)
 Total Entropy                    =   46.484 cal/mol-K
   - Translational                =   34.593 cal/mol-K (mol. weight =  18.0106)
   - Rotational                   =   11.884 cal/mol-K (symmetry #  =        1)
   - Vibrational                  =    0.007 cal/mol-K
   - Translational                  =    2.979 cal/mol-K
   - Rotational                     =    2.979 cal/mol-K
   - Vibrational                    =    0.049 cal/mol-K
 P.Frequency       -0.00       -0.00        0.00        0.00        0.00        0.00
 P.Frequency     1617.43     3767.28     3889.99
         Total DFT energy =      -76.419994467537
         Total DFT energy =    -76.419994467537
@ Step       Energy      Delta E   Gmax     Grms     Xrms     Xmax   Walltime
@ ---- ---------------- -------- -------- -------- -------- -------- --------
@    0     -76.41999447  0.0D+00  0.13615  0.03967  0.00000  0.00000      7.9
         Total DFT energy =      -76.429577834528
         Total DFT energy =      -76.432897927214
@    1     -76.43289793 -1.3D-02  0.00480  0.00190  0.07665  0.18419      9.4
         Total DFT energy =      -76.433098806339
         Total DFT energy =      -76.433104588150
@    2     -76.43310459 -2.1D-04  0.00118  0.00035  0.01574  0.04923     10.7
         Total DFT energy =      -76.433105959295

 Vector    3  Occ=2.000000D+00  E=-4.856478D-01  Symmetry=a'

 Vector    4  Occ=2.000000D+00  E=-3.485015D-01  Symmetry=a'

 Vector    5  Occ=2.000000D+00  E=-2.663643D-01  Symmetry=a"

 Vector    6  Occ=0.000000D+00  E=-3.681090D-02  Symmetry=a'

 Vector    7  Occ=0.000000D+00  E= 1.807691D-02  Symmetry=a'

 Vector    8  Occ=0.000000D+00  E= 8.997913D-02  Symmetry=a'

 Vector    9  Occ=0.000000D+00  E= 1.060606D-01  Symmetry=a"

 Vector   10  Occ=0.000000D+00  E= 1.172935D-01  Symmetry=a'

 Vector   11  Occ=0.000000D+00  E= 1.316943D-01  Symmetry=a'

 Vector   12  Occ=0.000000D+00  E= 1.648591D-01  Symmetry=a'

 Vector   13  Occ=0.000000D+00  E= 2.059653D-01  Symmetry=a'

 Vector   14  Occ=0.000000D+00  E= 2.580862D-01  Symmetry=a"

 Vector   15  Occ=0.000000D+00  E= 2.691582D-01  Symmetry=a'

 Vector   16  Occ=0.000000D+00  E= 2.980925D-01  Symmetry=a"

 Vector   17  Occ=0.000000D+00  E= 4.214989D-01  Symmetry=a'

 Vector   18  Occ=0.000000D+00  E= 4.755776D-01  Symmetry=a'

 Vector   19  Occ=0.000000D+00  E= 4.956260D-01  Symmetry=a'

 Vector   20  Occ=0.000000D+00  E= 5.875432D-01  Symmetry=a'

 Vector   21  Occ=0.000000D+00  E= 7.039432D-01  Symmetry=a'

 Vector   22  Occ=0.000000D+00  E= 8.691475D-01  Symmetry=a"

 Vector   23  Occ=0.000000D+00  E= 8.807596D-01  Symmetry=a'

 Vector   24  Occ=0.000000D+00  E= 9.143346D-01  Symmetry=a"

 Vector   25  Occ=0.000000D+00  E= 1.014718D+00  Symmetry=a'

 Vector   26  Occ=0.000000D+00  E= 1.144471D+00  Symmetry=a"

 Vector   27  Occ=0.000000D+00  E= 1.175219D+00  Symmetry=a'

 Vector   28  Occ=0.000000D+00  E= 1.261481D+00  Symmetry=a'

 Vector   29  Occ=0.000000D+00  E= 1.679548D+00  Symmetry=a'

 Vector   30  Occ=0.000000D+00  E= 1.692302D+00  Symmetry=a"

 Vector   31  Occ=0.000000D+00  E= 1.791353D+00  Symmetry=a"

 Vector   32  Occ=0.000000D+00  E= 2.045969D+00  Symmetry=a'

 Vector   33  Occ=0.000000D+00  E= 2.064178D+00  Symmetry=a'

 Vector   34  Occ=0.000000D+00  E= 2.203185D+00  Symmetry=a'

 Vector   35  Occ=0.000000D+00  E= 2.334075D+00  Symmetry=a'

 Vector   36  Occ=0.000000D+00  E= 2.586100D+00  Symmetry=a'

 Vector   37  Occ=0.000000D+00  E= 3.175588D+00  Symmetry=a"

 Vector   38  Occ=0.000000D+00  E= 3.187315D+00  Symmetry=a'

 Vector   39  Occ=0.000000D+00  E= 3.199750D+00  Symmetry=a"

 Vector   40  Occ=0.000000D+00  E= 3.499795D+00  Symmetry=a'

 Vector   41  Occ=0.000000D+00  E= 3.762720D+00  Symmetry=a'

         Total DFT energy =    -76.433105959295
@    3     -76.43310596 -1.4D-06  0.00029  0.00009  0.00065  0.00178     11.3
@    3     -76.43310596 -1.4D-06  0.00029  0.00009  0.00065  0.00178     11.3

 Output coordinates in angstroms (scale by  1.889725989 to convert to a.u.)

  No.       Tag          Charge          X              Y              Z
 ---- ---------------- ---------- -------------- -------------- --------------
    1 H                    1.0000     0.17853892     0.92716067     0.00000000
    2 O                    8.0000    -0.12688387     0.01006254     0.00000000
    3 H                    1.0000     0.69319015    -0.50195499     0.00000000
    4 X O                  0.0000     2.10878158    -1.68391970     0.00000000
    5 X H                  0.0000     2.06524911    -2.26932786    -0.76642764
    6 X H                  0.0000     2.06524911    -2.26932786     0.76642764

         Total DFT energy =      -76.433105961230

                       DFT Final Molecular Orbital Analysis
                       ------------------------------------

 Vector    1  Occ=2.000000D+00  E=-1.878426D+01

 Vector    2  Occ=2.000000D+00  E=-9.419488D-01

 Vector    3  Occ=2.000000D+00  E=-4.856398D-01

 Vector    4  Occ=2.000000D+00  E=-3.484907D-01

 Vector    5  Occ=2.000000D+00  E=-2.663530D-01

 Vector    6  Occ=0.000000D+00  E=-3.680968D-02

 Vector    7  Occ=0.000000D+00  E= 1.807778D-02

 Vector    8  Occ=0.000000D+00  E= 8.998089D-02

 Vector    9  Occ=0.000000D+00  E= 1.060628D-01

 Vector   10  Occ=0.000000D+00  E= 1.172950D-01

 Vector   11  Occ=0.000000D+00  E= 1.316963D-01

 Vector   12  Occ=0.000000D+00  E= 1.648601D-01

 Vector   13  Occ=0.000000D+00  E= 2.059662D-01

 Vector   14  Occ=0.000000D+00  E= 2.580867D-01

 Vector   15  Occ=0.000000D+00  E= 2.691597D-01

 Vector   16  Occ=0.000000D+00  E= 2.980936D-01

 Vector   17  Occ=0.000000D+00  E= 4.214994D-01

 Vector   18  Occ=0.000000D+00  E= 4.755798D-01

 Vector   19  Occ=0.000000D+00  E= 4.956286D-01

 Vector   20  Occ=0.000000D+00  E= 5.875449D-01

 Vector   21  Occ=0.000000D+00  E= 7.039452D-01

 Vector   22  Occ=0.000000D+00  E= 8.691523D-01

 Vector   23  Occ=0.000000D+00  E= 8.807638D-01

 Vector   24  Occ=0.000000D+00  E= 9.143383D-01

 Vector   25  Occ=0.000000D+00  E= 1.014722D+00

 Vector   26  Occ=0.000000D+00  E= 1.144479D+00

 Vector   27  Occ=0.000000D+00  E= 1.175224D+00

 Vector   28  Occ=0.000000D+00  E= 1.261487D+00

 Vector   29  Occ=0.000000D+00  E= 1.679550D+00

 Vector   30  Occ=0.000000D+00  E= 1.692304D+00

 Vector   31  Occ=0.000000D+00  E= 1.791354D+00

 Vector   32  Occ=0.000000D+00  E= 2.045972D+00

 Vector   33  Occ=0.000000D+00  E= 2.064184D+00

 Vector   34  Occ=0.000000D+00  E= 2.203191D+00

 Vector   35  Occ=0.000000D+00  E= 2.334078D+00

 Vector   36  Occ=0.000000D+00  E= 2.586105D+00

 Vector   37  Occ=0.000000D+00  E= 3.175599D+00

 Vector   38  Occ=0.000000D+00  E= 3.187325D+00

 Vector   39  Occ=0.000000D+00  E= 3.199760D+00

 Vector   40  Occ=0.000000D+00  E= 3.499804D+00

 Vector   41  Occ=0.000000D+00  E= 3.762729D+00

     Multipole analysis of the density
     ---------------------------------

     L   x y z        total         alpha         beta         nuclear
     -   - - -        -----         -----         ----         -------
     0   0 0 0     -0.000000     -5.000000     -5.000000     10.000000

     1   1 0 0      0.668394      0.469635      0.469635     -0.270877
     1   0 1 0      0.240609     -0.357518     -0.357518      0.955646
     1   0 0 1      0.000000      0.000000      0.000000      0.000000

     2   2 0 0     -4.720874     -3.505293     -3.505293      2.289712
     2   1 1 0     -0.394328      0.146783      0.146783     -0.687895
     2   1 0 1     -0.000000     -0.000000     -0.000000      0.000000
     2   0 2 0     -3.547284     -3.759860     -3.759860      3.972437
     2   0 1 1     -0.000000     -0.000000     -0.000000      0.000000

 Zero-Point correction to Energy  =   13.707 kcal/mol  (  0.021843 au)
 Thermal correction to Energy     =   18.613 kcal/mol  (  0.029662 au)
 Thermal correction to Enthalpy   =   19.205 kcal/mol  (  0.030606 au)
 Total Entropy                    =   89.114 cal/mol-K
   - Translational                =   34.593 cal/mol-K (mol. weight =  18.0106)
   - Rotational                   =   11.884 cal/mol-K (symmetry #  =        1)
   - Vibrational                  =   42.637 cal/mol-K
   - Translational                  =    2.979 cal/mol-K
   - Rotational                     =    2.979 cal/mol-K
   - Vibrational                    =   11.843 cal/mol-K
 P.Frequency        0.00        0.00        0.00        0.00        0.00        0.00
 P.Frequency        0.00        0.00        0.00        0.64        1.06       31.44
 P.Frequency       55.26       95.18      140.48     1617.54     3766.70     3884.41

 Normal Eigenvalue ||           Projected Infra Red Intensities
  Mode   [cm**-1]  || [atomic units] [(debye/angs)**2] [(KM/mol)] [arbitrary]
 ------ ---------- || -------------- ----------------- ---------- -----------
    1        0.000 ||    0.000000           0.000         0.000       0.000
    2        0.000 ||    0.000000           0.000         0.000       0.000
    3        0.000 ||    0.000000           0.000         0.000       0.000
    4        0.000 ||    0.000000           0.000         0.000       0.000
    5        0.000 ||    0.000000           0.000         0.000       0.000
    6        0.000 ||    0.000000           0.000         0.000       0.000
    7        0.000 ||    0.000002           0.000         0.001       0.001
    8        0.000 ||    0.000004           0.000         0.004       0.002
    9        0.000 ||    0.000002           0.000         0.001       0.001
   10        0.642 ||    0.000842           0.019         0.821       0.363
   11        1.056 ||    0.000000           0.000         0.000       0.000
   12       31.436 ||    0.019079           0.440        18.599       8.228
   13       55.264 ||    0.000863           0.020         0.841       0.372
   14       95.183 ||    0.058377           1.347        56.909      25.176
   15      140.476 ||    0.219803           5.071       214.275      94.791
   16     1617.540 ||    0.064335           1.484        62.717      27.745
   17     3766.699 ||    0.002158           0.050         2.104       0.931
   18     3884.406 ||    0.051920           1.198        50.614      22.391
 ----------------------------------------------------------------------------

 Total times  cpu:       14.7s     wall:       16.9s
