============================== echo of input deck ==============================
echo
# calculation for methane dimer Grimme JCC 2004
# with BLYP/TZVP2P

title "ch4_2"

start ch4_2

geometry units angstroms noautoz
 C 0.00000000 0.00000000 1.78977169
 H 0.00000000 0.00000000 2.88489619
 H -0.72912121 0.72912121 1.42221856
 H -0.26687689 -0.99599810 1.42221856
 H 0.99599810 0.26687689 1.42221856
 C 0.00000000 0.00000000 -1.78977169
 H -0.99599810 -0.26687689 -1.42221856
 H 0.00000000 0.00000000 -2.88489619
 H 0.72912121 -0.72912121 -1.42221856
 H 0.26687689 0.99599810 -1.42221856
end

basis "ao basis" spherical noprint
  * library cc-pvdz
end

dft
 cgmin
 xc  becke88 1. lyp 1.
 vectors output ch4_2.movecs
 direct
 disp vdw 1
end
task dft optimize

dft
 cgmin
 disp vdw 3
end
task dft energy
================================================================================

         Total DFT energy =      -80.952720078388
@ Step       Energy      Delta E   Gmax     Grms     Xrms     Xmax   Walltime
@ ---- ---------------- -------- -------- -------- -------- -------- --------
@    0     -80.95272008  0.0D+00  0.00804  0.00419  0.00000  0.00000      0.8
         Total DFT energy =      -80.953407923317
         Total DFT energy =      -80.953473644822
@    1     -80.95347364 -7.5D-04  0.00038  0.00017  0.01220  0.02653      1.6
         Total DFT energy =      -80.953475554539
         Total DFT energy =    -80.953475554539
@    2     -80.95347555 -1.9D-06  0.00026  0.00008  0.00092  0.00188      2.1
         Total DFT energy =      -80.953476234190

 Vector   57  Occ=0.000000D+00  E= 2.164744D+00  Symmetry=eu

 Vector   58  Occ=0.000000D+00  E= 2.164744D+00  Symmetry=eu

 Vector   59  Occ=0.000000D+00  E= 2.164887D+00  Symmetry=eg

 Vector   60  Occ=0.000000D+00  E= 2.164887D+00  Symmetry=eg

 Vector   61  Occ=0.000000D+00  E= 2.302841D+00  Symmetry=a1g

 Vector   62  Occ=0.000000D+00  E= 2.319847D+00  Symmetry=a2u

 Vector   63  Occ=0.000000D+00  E= 2.337046D+00  Symmetry=eg

 Vector   64  Occ=0.000000D+00  E= 2.337046D+00  Symmetry=eg

 Vector   65  Occ=0.000000D+00  E= 2.352530D+00  Symmetry=a1g

 Vector   66  Occ=0.000000D+00  E= 2.355584D+00  Symmetry=eu

 Vector   67  Occ=0.000000D+00  E= 2.355584D+00  Symmetry=eu

 Vector   68  Occ=0.000000D+00  E= 2.373986D+00  Symmetry=a2u

         Total DFT energy =    -80.953476234190
@    3     -80.95347623 -6.8D-07  0.00011  0.00005  0.00045  0.00087      2.3
@    3     -80.95347623 -6.8D-07  0.00011  0.00005  0.00045  0.00087      2.3

 Output coordinates in angstroms (scale by  1.889725989 to convert to a.u.)

  No.       Tag          Charge          X              Y              Z
 ---- ---------------- ---------- -------------- -------------- --------------
    1 C                    6.0000     0.00000000    -0.00000000     1.79195889
    2 H                    1.0000    -0.00000000     0.00000000     2.89955542
    3 H                    1.0000    -0.73729960     0.73729960     1.41940902
    4 H                    1.0000    -0.26987038    -1.00716998     1.41940902
    5 H                    1.0000     1.00716998     0.26987038     1.41940902
    6 C                    6.0000    -0.00000000     0.00000000    -1.79195889
    7 H                    1.0000    -1.00716998    -0.26987038    -1.41940902
    8 H                    1.0000     0.00000000    -0.00000000    -2.89955542
    9 H                    1.0000     0.73729960    -0.73729960    -1.41940902
   10 H                    1.0000     0.26987038     1.00716998    -1.41940902

         Total DFT energy =      -80.953601572311

                       DFT Final Molecular Orbital Analysis
                       ------------------------------------

 Vector    1  Occ=2.000000D+00  E=-9.912815D+00  Symmetry=a2u

 Vector    2  Occ=2.000000D+00  E=-9.912808D+00  Symmetry=a1g

 Vector    3  Occ=2.000000D+00  E=-6.137447D-01  Symmetry=a1g

 Vector    4  Occ=2.000000D+00  E=-6.084695D-01  Symmetry=a2u

 Vector    5  Occ=2.000000D+00  E=-3.417378D-01  Symmetry=a1g

 Vector    6  Occ=2.000000D+00  E=-3.376861D-01  Symmetry=eu

 Vector    7  Occ=2.000000D+00  E=-3.376861D-01  Symmetry=eu

 Vector    8  Occ=2.000000D+00  E=-3.310969D-01  Symmetry=eg

 Vector    9  Occ=2.000000D+00  E=-3.310969D-01  Symmetry=eg

 Vector   10  Occ=2.000000D+00  E=-3.284272D-01  Symmetry=a2u

 Vector   11  Occ=0.000000D+00  E= 3.386546D-02  Symmetry=a1g

 Vector   12  Occ=0.000000D+00  E= 8.239871D-02  Symmetry=a2u

 Vector   13  Occ=0.000000D+00  E= 1.056317D-01  Symmetry=eu

 Vector   14  Occ=0.000000D+00  E= 1.056317D-01  Symmetry=eu

 Vector   15  Occ=0.000000D+00  E= 1.105539D-01  Symmetry=a1g

 Vector   16  Occ=0.000000D+00  E= 1.292145D-01  Symmetry=a2u

 Vector   17  Occ=0.000000D+00  E= 1.351830D-01  Symmetry=eg

 Vector   18  Occ=0.000000D+00  E= 1.351830D-01  Symmetry=eg

 Vector   19  Occ=0.000000D+00  E= 3.151264D-01  Symmetry=a1g

 Vector   20  Occ=0.000000D+00  E= 3.758767D-01  Symmetry=eu

 Vector   21  Occ=0.000000D+00  E= 3.758767D-01  Symmetry=eu

 Vector   22  Occ=0.000000D+00  E= 3.971109D-01  Symmetry=eg

 Vector   23  Occ=0.000000D+00  E= 3.971109D-01  Symmetry=eg

 Vector   24  Occ=0.000000D+00  E= 5.061135D-01  Symmetry=a2u

 Vector   25  Occ=0.000000D+00  E= 5.851975D-01  Symmetry=a1g

 Vector   26  Occ=0.000000D+00  E= 6.018275D-01  Symmetry=eg

 Vector   27  Occ=0.000000D+00  E= 6.018275D-01  Symmetry=eg

 Vector   28  Occ=0.000000D+00  E= 6.075479D-01  Symmetry=eu

 Vector   29  Occ=0.000000D+00  E= 6.075479D-01  Symmetry=eu

 Vector   30  Occ=0.000000D+00  E= 6.224195D-01  Symmetry=a2u

 Vector   31  Occ=0.000000D+00  E= 6.239231D-01  Symmetry=a1g

 Vector   32  Occ=0.000000D+00  E= 7.375222D-01  Symmetry=a2u

 Vector   33  Occ=0.000000D+00  E= 8.628954D-01  Symmetry=eu

 Vector   34  Occ=0.000000D+00  E= 8.628954D-01  Symmetry=eu

 Vector   35  Occ=0.000000D+00  E= 8.665588D-01  Symmetry=eg

 Vector   36  Occ=0.000000D+00  E= 8.665588D-01  Symmetry=eg

 Vector   37  Occ=0.000000D+00  E= 9.659584D-01  Symmetry=a1g

 Vector   38  Occ=0.000000D+00  E= 1.054301D+00  Symmetry=a2u

 Vector   39  Occ=0.000000D+00  E= 1.358700D+00  Symmetry=eu

 Vector   40  Occ=0.000000D+00  E= 1.358700D+00  Symmetry=eu

 Vector   41  Occ=0.000000D+00  E= 1.359212D+00  Symmetry=eg

 Vector   42  Occ=0.000000D+00  E= 1.359212D+00  Symmetry=eg

 Vector   43  Occ=0.000000D+00  E= 1.360527D+00  Symmetry=a1u

 Vector   44  Occ=0.000000D+00  E= 1.360889D+00  Symmetry=a2g

 Vector   45  Occ=0.000000D+00  E= 1.545685D+00  Symmetry=eu

 Vector   46  Occ=0.000000D+00  E= 1.545685D+00  Symmetry=eu

 Vector   47  Occ=0.000000D+00  E= 1.560155D+00  Symmetry=a1g

 Vector   48  Occ=0.000000D+00  E= 1.563652D+00  Symmetry=eg

 Vector   49  Occ=0.000000D+00  E= 1.563652D+00  Symmetry=eg

 Vector   50  Occ=0.000000D+00  E= 1.641529D+00  Symmetry=a2u

 Vector   51  Occ=0.000000D+00  E= 1.846927D+00  Symmetry=a1g

 Vector   52  Occ=0.000000D+00  E= 1.849566D+00  Symmetry=eu

 Vector   53  Occ=0.000000D+00  E= 1.849566D+00  Symmetry=eu

 Vector   54  Occ=0.000000D+00  E= 1.867645D+00  Symmetry=eg

 Vector   55  Occ=0.000000D+00  E= 1.867645D+00  Symmetry=eg

 Vector   56  Occ=0.000000D+00  E= 1.935757D+00  Symmetry=a2u

 Vector   57  Occ=0.000000D+00  E= 2.164744D+00  Symmetry=eu

 Vector   58  Occ=0.000000D+00  E= 2.164744D+00  Symmetry=eu

 Vector   59  Occ=0.000000D+00  E= 2.164887D+00  Symmetry=eg

 Vector   60  Occ=0.000000D+00  E= 2.164887D+00  Symmetry=eg

 Vector   61  Occ=0.000000D+00  E= 2.302841D+00  Symmetry=a1g

 Vector   62  Occ=0.000000D+00  E= 2.319847D+00  Symmetry=a2u

 Vector   63  Occ=0.000000D+00  E= 2.337046D+00  Symmetry=eg

 Vector   64  Occ=0.000000D+00  E= 2.337046D+00  Symmetry=eg

 Vector   65  Occ=0.000000D+00  E= 2.352530D+00  Symmetry=a1g

 Vector   66  Occ=0.000000D+00  E= 2.355584D+00  Symmetry=eu

 Vector   67  Occ=0.000000D+00  E= 2.355584D+00  Symmetry=eu

 Vector   68  Occ=0.000000D+00  E= 2.373986D+00  Symmetry=a2u

 Total times  cpu:        2.3s     wall:        2.5s
