============================== echo of input deck ==============================
start geom_zmatrix
echo
  geometry autosym units angstrom noautoz print
         zmatrix
            O
            H    1 r2
            H    1 r2    2 a3
            O    1 r3    2 a4    3 a4 -1
            H    4 r2    1 a4    2 d1
            H    4 r2    1 a4    3 d1
            variables
            r2 0.962
            r3 2.000000
            a3 105.1
            a4 127.45
            d1 90.000000
         end
        end
basis
* library 6-31G*
end
print low
task dft

GEOMETRY
  ZMATRIX
    C
    O  1 dst1
    C  1 dst2 2 ang1
    H  1 dst3 2 ang2 3 ang3 1
    H  1 dst4 2 ang4 3 ang5 -1
    H  2 dst5 1 ang6 3 tor1
    H  3 dst6 1 ang7 2 tor2
    H  3 dst7 1 ang8 7 ang9 1
    H  3 dst8 1 ang10 7 ang11 -1
    VARIABLES
     ang10  109.47042118
     dst8  1.08998960
     ang5  109.47042118
     ang4  109.46955544
     ang11  109.46955544
     dst6  1.09000000
     ang3  109.47042118
     ang8  109.47042118
     ang2  109.46955544
     dst5  0.98005555
     dst3  1.08998960
     dst1  1.42000000
     ang6  109.47213930
     ang9  109.46955544
     dst2  1.53000204
     ang7  109.47119359
     dst4  1.08998960
     dst7  1.08998960
     ang1  109.47119359
     tor2  180.00000000
     tor1  180.00000000
  END
END

task dft
================================================================================

         Total DFT energy =     -151.654032042993

 Vector   16  Occ=0.000000D+00  E= 7.254776D-01  Symmetry=e

 Vector   17  Occ=0.000000D+00  E= 8.333426D-01  Symmetry=a1

 Vector   18  Occ=0.000000D+00  E= 8.594648D-01  Symmetry=b2

 Vector   19  Occ=0.000000D+00  E= 8.930457D-01  Symmetry=e

 Vector   20  Occ=0.000000D+00  E= 8.930457D-01  Symmetry=e

 Vector   21  Occ=0.000000D+00  E= 9.419130D-01  Symmetry=a1

 Vector   22  Occ=0.000000D+00  E= 1.057653D+00  Symmetry=e

 Vector   23  Occ=0.000000D+00  E= 1.057653D+00  Symmetry=e

 Vector   24  Occ=0.000000D+00  E= 1.058988D+00  Symmetry=b2

 Vector   25  Occ=0.000000D+00  E= 1.162858D+00  Symmetry=a1

 Vector   26  Occ=0.000000D+00  E= 1.218020D+00  Symmetry=b2

 Vector   27  Occ=0.000000D+00  E= 1.515460D+00  Symmetry=a1

 Vector   28  Occ=0.000000D+00  E= 1.689784D+00  Symmetry=b1

 Vector   29  Occ=0.000000D+00  E= 1.714960D+00  Symmetry=a2

 Vector   30  Occ=0.000000D+00  E= 1.793576D+00  Symmetry=e

 Vector   31  Occ=0.000000D+00  E= 1.793576D+00  Symmetry=e

 Vector   32  Occ=0.000000D+00  E= 2.228267D+00  Symmetry=b2

 Vector   33  Occ=0.000000D+00  E= 2.273036D+00  Symmetry=a1

 Vector   34  Occ=0.000000D+00  E= 2.414884D+00  Symmetry=b2

 Vector   35  Occ=0.000000D+00  E= 2.545203D+00  Symmetry=e

 Vector   36  Occ=0.000000D+00  E= 2.545203D+00  Symmetry=e

 Vector   37  Occ=0.000000D+00  E= 3.527501D+00  Symmetry=a1

 Vector   38  Occ=0.000000D+00  E= 3.647243D+00  Symmetry=b2

 Output coordinates in angstroms (scale by  1.889725989 to convert to a.u.)

  No.       Tag          Charge          X              Y              Z
 ---- ---------------- ---------- -------------- -------------- --------------
    1 C                    6.0000    -0.54068938    -0.06592616     0.00000000
    2 O                    8.0000     0.34483642    -1.17599105     0.00000000
    3 C                    6.0000     0.26892361     1.23231613     0.00000000
    4 H                    1.0000    -1.16890266    -0.10233220     0.89000000
    5 H                    1.0000    -1.16890266    -0.10233220    -0.89000000
    6 H                    1.0000    -0.17375420    -2.00759953     0.00000000
    7 H                    1.0000    -0.41081098     2.08440819     0.00000000
    8 H                    1.0000     0.89713689     1.26872217    -0.89000000
    9 H                    1.0000     0.89713689     1.26872217     0.89000000

         Total DFT energy =     -153.719366137030

                       DFT Final Molecular Orbital Analysis
                       ------------------------------------

 Vector    1  Occ=2.000000D+00  E=-1.860529D+01  Symmetry=a'

 Vector    2  Occ=2.000000D+00  E=-9.825009D+00  Symmetry=a'

 Vector    3  Occ=2.000000D+00  E=-9.772533D+00  Symmetry=a'

 Vector    4  Occ=2.000000D+00  E=-9.105556D-01  Symmetry=a'

 Vector    5  Occ=2.000000D+00  E=-6.664899D-01  Symmetry=a'

 Vector    6  Occ=2.000000D+00  E=-5.393062D-01  Symmetry=a'

 Vector    7  Occ=2.000000D+00  E=-4.575119D-01  Symmetry=a'

 Vector    8  Occ=2.000000D+00  E=-4.103657D-01  Symmetry=a"

 Vector    9  Occ=2.000000D+00  E=-3.454832D-01  Symmetry=a'

 Vector   10  Occ=2.000000D+00  E=-3.343540D-01  Symmetry=a'

 Vector   11  Occ=2.000000D+00  E=-3.141463D-01  Symmetry=a"

 Vector   12  Occ=2.000000D+00  E=-2.691407D-01  Symmetry=a'

 Vector   13  Occ=2.000000D+00  E=-2.051030D-01  Symmetry=a"

 Vector   14  Occ=0.000000D+00  E= 4.534078D-02  Symmetry=a'

 Vector   15  Occ=0.000000D+00  E= 9.180332D-02  Symmetry=a'

 Vector   16  Occ=0.000000D+00  E= 1.311982D-01  Symmetry=a"

 Vector   17  Occ=0.000000D+00  E= 1.389537D-01  Symmetry=a'

 Vector   18  Occ=0.000000D+00  E= 1.441958D-01  Symmetry=a'

 Vector   19  Occ=0.000000D+00  E= 1.674516D-01  Symmetry=a"

 Vector   20  Occ=0.000000D+00  E= 1.717038D-01  Symmetry=a'

 Vector   21  Occ=0.000000D+00  E= 1.915124D-01  Symmetry=a'

 Vector   22  Occ=0.000000D+00  E= 4.793981D-01  Symmetry=a'

 Vector   23  Occ=0.000000D+00  E= 5.042113D-01  Symmetry=a'

 Vector   24  Occ=0.000000D+00  E= 5.147164D-01  Symmetry=a"

 Vector   25  Occ=0.000000D+00  E= 5.293757D-01  Symmetry=a'

 Vector   26  Occ=0.000000D+00  E= 6.081018D-01  Symmetry=a'

 Vector   27  Occ=0.000000D+00  E= 6.286984D-01  Symmetry=a"

 Vector   28  Occ=0.000000D+00  E= 7.538445D-01  Symmetry=a'

 Vector   29  Occ=0.000000D+00  E= 8.138639D-01  Symmetry=a"

 Vector   30  Occ=0.000000D+00  E= 8.312426D-01  Symmetry=a'

 Vector   31  Occ=0.000000D+00  E= 8.547209D-01  Symmetry=a'

 Vector   32  Occ=0.000000D+00  E= 8.691668D-01  Symmetry=a"

 Vector   33  Occ=0.000000D+00  E= 8.921188D-01  Symmetry=a'

 Vector   34  Occ=0.000000D+00  E= 9.434302D-01  Symmetry=a'

 Vector   35  Occ=0.000000D+00  E= 9.598792D-01  Symmetry=a"

 Vector   36  Occ=0.000000D+00  E= 9.683250D-01  Symmetry=a'

 Vector   37  Occ=0.000000D+00  E= 1.103221D+00  Symmetry=a'

 Vector   38  Occ=0.000000D+00  E= 1.308935D+00  Symmetry=a'

 Vector   39  Occ=0.000000D+00  E= 1.378835D+00  Symmetry=a"

 Vector   40  Occ=0.000000D+00  E= 1.415547D+00  Symmetry=a'

 Vector   41  Occ=0.000000D+00  E= 1.605942D+00  Symmetry=a'

 Vector   42  Occ=0.000000D+00  E= 1.681895D+00  Symmetry=a"

 Vector   43  Occ=0.000000D+00  E= 1.706097D+00  Symmetry=a'

 Vector   44  Occ=0.000000D+00  E= 1.873178D+00  Symmetry=a"

 Vector   45  Occ=0.000000D+00  E= 1.878395D+00  Symmetry=a'

 Vector   46  Occ=0.000000D+00  E= 1.977558D+00  Symmetry=a'

 Vector   47  Occ=0.000000D+00  E= 2.115664D+00  Symmetry=a"

 Vector   48  Occ=0.000000D+00  E= 2.154569D+00  Symmetry=a'

 Vector   49  Occ=0.000000D+00  E= 2.251425D+00  Symmetry=a"

 Vector   50  Occ=0.000000D+00  E= 2.282143D+00  Symmetry=a'

 Vector   51  Occ=0.000000D+00  E= 2.327697D+00  Symmetry=a"

 Vector   52  Occ=0.000000D+00  E= 2.418633D+00  Symmetry=a'

 Vector   53  Occ=0.000000D+00  E= 2.541503D+00  Symmetry=a'

 Vector   54  Occ=0.000000D+00  E= 2.749780D+00  Symmetry=a'

 Vector   55  Occ=0.000000D+00  E= 3.635348D+00  Symmetry=a'

 Vector   56  Occ=0.000000D+00  E= 4.090334D+00  Symmetry=a'

 Vector   57  Occ=0.000000D+00  E= 4.315614D+00  Symmetry=a'

 Total times  cpu:        1.4s     wall:        1.5s
