============================== echo of input deck ==============================
echo
start  h2o-campbe0

geometry units angstrom
O      0.00000000     0.00000000     0.11726921
H      0.75698224     0.00000000    -0.46907685
H     -0.75698224     0.00000000    -0.46907685
end

basis spherical
  * library aug-cc-pvdz
end

#Long-range HF
dft
  odft
  xc xcampbe96 1.0 cpbe96 1.0 HFexch 1.0
  cam 0.30 cam_alpha 0.25 cam_beta 0.75
  iterations 100
  direct
end
task dft energy

property
  center com
  dipole
  aoresponse 1 0.0
end
task dft property
================================================================================

 Output coordinates in angstroms (scale by  1.889725989 to convert to a.u.)

  No.       Tag          Charge          X              Y              Z
 ---- ---------------- ---------- -------------- -------------- --------------
    1 O                    8.0000     0.00000000     0.00000000     0.11726921
    2 H                    1.0000     0.75698224     0.00000000    -0.46907685
    3 H                    1.0000    -0.75698224     0.00000000    -0.46907685

         Total DFT energy =      -76.276023147272
         Total DFT energy =      -76.276023163317

                    DFT Final Alpha Molecular Orbital Analysis
                    ------------------------------------------

 Vector    1  Occ=1.000000D+00  E=-1.934330D+01

 Vector    3  Occ=1.000000D+00  E=-6.628131D-01

 Vector    4  Occ=1.000000D+00  E=-5.220927D-01

 Vector    5  Occ=1.000000D+00  E=-4.452068D-01

 Vector    6  Occ=0.000000D+00  E= 2.980429D-02

 Vector    7  Occ=0.000000D+00  E= 5.636697D-02

 Vector    8  Occ=0.000000D+00  E= 1.614299D-01

 Vector    9  Occ=0.000000D+00  E= 1.885567D-01

 Vector   10  Occ=0.000000D+00  E= 2.018406D-01

 Vector   11  Occ=0.000000D+00  E= 2.197632D-01

 Vector   12  Occ=0.000000D+00  E= 2.578951D-01

 Vector   13  Occ=0.000000D+00  E= 3.082437D-01

 Vector   14  Occ=0.000000D+00  E= 3.636749D-01

 Vector   15  Occ=0.000000D+00  E= 3.750544D-01

 Vector   16  Occ=0.000000D+00  E= 4.061354D-01

 Vector   17  Occ=0.000000D+00  E= 5.203877D-01

 Vector   18  Occ=0.000000D+00  E= 5.925849D-01

 Vector   19  Occ=0.000000D+00  E= 6.137013D-01

 Vector   20  Occ=0.000000D+00  E= 7.276649D-01

 Vector   21  Occ=0.000000D+00  E= 8.445156D-01

 Vector   22  Occ=0.000000D+00  E= 1.009583D+00

 Vector   23  Occ=0.000000D+00  E= 1.021391D+00

 Vector   24  Occ=0.000000D+00  E= 1.056577D+00

 Vector   25  Occ=0.000000D+00  E= 1.183237D+00

 Vector   26  Occ=0.000000D+00  E= 1.318590D+00

 Vector   27  Occ=0.000000D+00  E= 1.339796D+00

 Vector   28  Occ=0.000000D+00  E= 1.436063D+00

 Vector   29  Occ=0.000000D+00  E= 1.857080D+00

 Vector   30  Occ=0.000000D+00  E= 1.873919D+00

 Vector   31  Occ=0.000000D+00  E= 1.968194D+00

 Vector   32  Occ=0.000000D+00  E= 2.232427D+00

 Vector   33  Occ=0.000000D+00  E= 2.277523D+00

 Vector   34  Occ=0.000000D+00  E= 2.422381D+00

 Vector   35  Occ=0.000000D+00  E= 2.539255D+00

 Vector   36  Occ=0.000000D+00  E= 2.781657D+00

 Vector   37  Occ=0.000000D+00  E= 3.423421D+00

 Vector   38  Occ=0.000000D+00  E= 3.436321D+00

 Vector   39  Occ=0.000000D+00  E= 3.449952D+00

 Vector   40  Occ=0.000000D+00  E= 3.766231D+00

 Vector   41  Occ=0.000000D+00  E= 4.035082D+00

 Vector    1  Occ=1.000000D+00  E=-1.934330D+01

 Vector    2  Occ=1.000000D+00  E=-1.174435D+00

 Vector    3  Occ=1.000000D+00  E=-6.628131D-01

 Vector    4  Occ=1.000000D+00  E=-5.220927D-01

 Vector    5  Occ=1.000000D+00  E=-4.452068D-01

 Vector    6  Occ=0.000000D+00  E= 2.980429D-02

 Vector    7  Occ=0.000000D+00  E= 5.636697D-02

 Vector    8  Occ=0.000000D+00  E= 1.614299D-01

 Vector    9  Occ=0.000000D+00  E= 1.885567D-01

 Vector   10  Occ=0.000000D+00  E= 2.018406D-01

 Vector   11  Occ=0.000000D+00  E= 2.197632D-01

 Vector   12  Occ=0.000000D+00  E= 2.578951D-01

 Vector   13  Occ=0.000000D+00  E= 3.082437D-01

 Vector   14  Occ=0.000000D+00  E= 3.636749D-01

 Vector   15  Occ=0.000000D+00  E= 3.750544D-01

 Vector   16  Occ=0.000000D+00  E= 4.061354D-01

 Vector   17  Occ=0.000000D+00  E= 5.203877D-01

 Vector   18  Occ=0.000000D+00  E= 5.925849D-01

 Vector   19  Occ=0.000000D+00  E= 6.137013D-01

 Vector   20  Occ=0.000000D+00  E= 7.276649D-01

 Vector   21  Occ=0.000000D+00  E= 8.445156D-01

 Vector   22  Occ=0.000000D+00  E= 1.009583D+00

 Vector   23  Occ=0.000000D+00  E= 1.021391D+00

 Vector   24  Occ=0.000000D+00  E= 1.056577D+00

 Vector   25  Occ=0.000000D+00  E= 1.183237D+00

 Vector   26  Occ=0.000000D+00  E= 1.318590D+00

 Vector   27  Occ=0.000000D+00  E= 1.339796D+00

 Vector   28  Occ=0.000000D+00  E= 1.436063D+00

 Vector   29  Occ=0.000000D+00  E= 1.857080D+00

 Vector   30  Occ=0.000000D+00  E= 1.873919D+00

 Vector   31  Occ=0.000000D+00  E= 1.968194D+00

 Vector   32  Occ=0.000000D+00  E= 2.232427D+00

 Vector   33  Occ=0.000000D+00  E= 2.277523D+00

 Vector   34  Occ=0.000000D+00  E= 2.422381D+00

 Vector   35  Occ=0.000000D+00  E= 2.539255D+00

 Vector   36  Occ=0.000000D+00  E= 2.781657D+00

 Vector   37  Occ=0.000000D+00  E= 3.423421D+00

 Vector   38  Occ=0.000000D+00  E= 3.436321D+00

 Vector   39  Occ=0.000000D+00  E= 3.449952D+00

 Vector   40  Occ=0.000000D+00  E= 3.766231D+00

 Vector   41  Occ=0.000000D+00  E= 4.035082D+00

     Multipole analysis of the density
     ---------------------------------

     L   x y z        total         alpha         beta         nuclear
     -   - - -        -----         -----         ----         -------
     0   0 0 0     -0.000000     -5.000000     -5.000000     10.000000

     1   1 0 0     -0.000000     -0.000000     -0.000000      0.000000
     1   0 1 0      0.000000      0.000000     -0.000000      0.000000
     1   0 0 1     -0.758326     -0.379163     -0.379163      0.000000

     2   2 0 0     -3.296595     -3.694596     -3.694596      4.092598
     2   1 1 0     -0.000000     -0.000000     -0.000000      0.000000
     2   1 0 1      0.000000      0.000000      0.000000      0.000000
     2   0 2 0     -5.767176     -2.883588     -2.883588      0.000000
     2   0 1 1     -0.000000     -0.000000     -0.000000      0.000000

 Total times  cpu:        3.4s     wall:        3.6s
