============================== echo of input deck ==============================
echo
start  h2o-lcpbe

geometry units angstrom
O      0.00000000     0.00000000     0.11726921
H      0.75698224     0.00000000    -0.46907685
H     -0.75698224     0.00000000    -0.46907685
end

basis spherical
  * library aug-cc-pvdz
end

set int:cando_txs f

dft
  xc xcampbe96 1.0 cpbe96 1.0 HFexch 1.0
  cam 0.30 cam_alpha 0.0 cam_beta 1.0
  iterations 100
  direct
end
task dft energy
================================================================================

 Output coordinates in angstroms (scale by  1.889725989 to convert to a.u.)

  No.       Tag          Charge          X              Y              Z
 ---- ---------------- ---------- -------------- -------------- --------------
    1 O                    8.0000     0.00000000     0.00000000     0.11726921
    2 H                    1.0000     0.75698224     0.00000000    -0.46907685
    3 H                    1.0000    -0.75698224     0.00000000    -0.46907685

         Total DFT energy =      -76.246746020076

                       DFT Final Molecular Orbital Analysis
                       ------------------------------------

 Vector    1  Occ=2.000000D+00  E=-1.892918D+01  Symmetry=a1

 Vector    2  Occ=2.000000D+00  E=-1.102985D+00  Symmetry=a1

 Vector    3  Occ=2.000000D+00  E=-6.329556D-01  Symmetry=b1

 Vector    4  Occ=2.000000D+00  E=-4.903039D-01  Symmetry=a1

 Vector    5  Occ=2.000000D+00  E=-4.143323D-01  Symmetry=b2

 Vector    6  Occ=0.000000D+00  E= 2.785102D-02  Symmetry=a1

 Vector    7  Occ=0.000000D+00  E= 5.586926D-02  Symmetry=b1

 Vector    8  Occ=0.000000D+00  E= 1.569705D-01  Symmetry=a1

 Vector    9  Occ=0.000000D+00  E= 1.862025D-01  Symmetry=b2

 Vector   10  Occ=0.000000D+00  E= 1.967072D-01  Symmetry=a1

 Vector   11  Occ=0.000000D+00  E= 2.147157D-01  Symmetry=b1

 Vector   12  Occ=0.000000D+00  E= 2.499147D-01  Symmetry=b1

 Vector   13  Occ=0.000000D+00  E= 3.020610D-01  Symmetry=a1

 Vector   14  Occ=0.000000D+00  E= 3.578615D-01  Symmetry=a2

 Vector   15  Occ=0.000000D+00  E= 3.673455D-01  Symmetry=a1

 Vector   16  Occ=0.000000D+00  E= 3.990021D-01  Symmetry=b2

 Vector   17  Occ=0.000000D+00  E= 5.147719D-01  Symmetry=b1

 Vector   18  Occ=0.000000D+00  E= 5.780278D-01  Symmetry=a1

 Vector   19  Occ=0.000000D+00  E= 6.000712D-01  Symmetry=b1

 Vector   20  Occ=0.000000D+00  E= 7.083259D-01  Symmetry=b1

 Vector   21  Occ=0.000000D+00  E= 8.238326D-01  Symmetry=a1

 Vector   22  Occ=0.000000D+00  E= 9.876246D-01  Symmetry=b2

 Vector   23  Occ=0.000000D+00  E= 9.993283D-01  Symmetry=a1

 Vector   24  Occ=0.000000D+00  E= 1.035234D+00  Symmetry=a2

 Vector   25  Occ=0.000000D+00  E= 1.148797D+00  Symmetry=a1

 Vector   26  Occ=0.000000D+00  E= 1.271922D+00  Symmetry=b2

 Vector   27  Occ=0.000000D+00  E= 1.304661D+00  Symmetry=b1

 Vector   28  Occ=0.000000D+00  E= 1.395428D+00  Symmetry=a1

 Vector   29  Occ=0.000000D+00  E= 1.819265D+00  Symmetry=b1

 Vector   30  Occ=0.000000D+00  E= 1.838802D+00  Symmetry=a2

 Vector   31  Occ=0.000000D+00  E= 1.932108D+00  Symmetry=b2

 Vector   32  Occ=0.000000D+00  E= 2.196601D+00  Symmetry=a1

 Vector   33  Occ=0.000000D+00  E= 2.220086D+00  Symmetry=b1

 Vector   34  Occ=0.000000D+00  E= 2.364351D+00  Symmetry=a1

 Vector   35  Occ=0.000000D+00  E= 2.488431D+00  Symmetry=b1

 Vector   36  Occ=0.000000D+00  E= 2.728508D+00  Symmetry=a1

 Vector   37  Occ=0.000000D+00  E= 3.352157D+00  Symmetry=b2

 Vector   38  Occ=0.000000D+00  E= 3.364069D+00  Symmetry=a1

 Vector   39  Occ=0.000000D+00  E= 3.377789D+00  Symmetry=a2

 Vector   40  Occ=0.000000D+00  E= 3.690135D+00  Symmetry=a1

 Vector   41  Occ=0.000000D+00  E= 3.954142D+00  Symmetry=b1

     Multipole analysis of the density
     ---------------------------------

     L   x y z        total         alpha         beta         nuclear
     -   - - -        -----         -----         ----         -------
     0   0 0 0     -0.000000     -5.000000     -5.000000     10.000000

     1   1 0 0     -0.000000     -0.000000     -0.000000      0.000000
     1   0 1 0     -0.000000     -0.000000     -0.000000      0.000000
     1   0 0 1     -0.743141     -0.371570     -0.371570      0.000000

     2   2 0 0     -3.391042     -3.741820     -3.741820      4.092598
     2   1 1 0     -0.000000     -0.000000     -0.000000      0.000000
     2   1 0 1      0.000000      0.000000      0.000000      0.000000
     2   0 2 0     -5.862402     -2.931201     -2.931201      0.000000
     2   0 1 1     -0.000000     -0.000000     -0.000000      0.000000

 Total times  cpu:        0.4s     wall:        0.4s
