============================== echo of input deck ==============================
echo

title "h2o2"

memory 128 mb
#memory global 73 mb stack 20 mb heap 5 mb

start h2o2

geometry units bohr nocenter
symmetry c1
#
 O     0.00000000     0.00000000     1.41178038
 O     0.12488360     0.00000000    -1.40614001
 H    -1.06625676    -1.50151179     1.65190485
 H    -0.91573670     1.50151179    -1.74142163
end

basis spherical
 * library 6-31G**
end

scf
 direct
end

charge 0

dft
 direct
 xc xcamb88 1.00 lyp 0.81 vwn_5 0.19 hfexch 1.00
 cam 0.33 cam_alpha 0.19 cam_beta 0.46
 tolerances tight
 grid fine
 convergence energy 1e-10
#XC slater vwn_5
# XC pbe0
# XC hfexch
# XC becke88 lyp
end

property
 aoresponse  1  0.077318
 #damping 0.0037
 convergence 1e-7
 bdtensor
 # orbeta
 gprime
 giao
end

set cphf:acc 1.0d-10
set cphf:maxsub 30

task dft property

property
 aoresponse  1  0.077318
 damping 0.1
 convergence 1e-7
 bdtensor
 # orbeta
 gprime
 giao
end

task dft property

tddft
  rpa
  singlet
  notriplet
  nroots 10
  cdspectrum
  thresh 1e-6
  giao
  # velocity
end

task tddft energy

================================================================================

 Output coordinates in a.u. (scale by  1.000000000 to convert to a.u.)

  No.       Tag          Charge          X              Y              Z
 ---- ---------------- ---------- -------------- -------------- --------------
    1 O                    8.0000     0.00000000     0.00000000     1.41178038
    2 O                    8.0000     0.12488360     0.00000000    -1.40614001
    3 H                    1.0000    -1.06625676    -1.50151179     1.65190485
    4 H                    1.0000    -0.91573670     1.50151179    -1.74142163

         Total DFT energy =     -151.487032663385

 Vector   35  Occ=0.000000D+00  E= 2.912750D+00

 Vector   36  Occ=0.000000D+00  E= 3.027909D+00

 Vector   37  Occ=0.000000D+00  E= 3.446045D+00

 Vector   38  Occ=0.000000D+00  E= 3.528608D+00

         Total DFT energy =     -151.487032663393

 Vector    1  Occ=2.000000D+00  E=-1.927392D+01

 Vector    2  Occ=2.000000D+00  E=-1.927391D+01

 Vector    3  Occ=2.000000D+00  E=-1.174843D+00

 Vector    4  Occ=2.000000D+00  E=-9.708991D-01

 Vector    5  Occ=2.000000D+00  E=-5.807833D-01

 Vector    6  Occ=2.000000D+00  E=-5.485597D-01

 Vector    7  Occ=2.000000D+00  E=-4.764127D-01

 Vector    8  Occ=2.000000D+00  E=-3.797477D-01

 Vector    9  Occ=2.000000D+00  E=-3.480711D-01

 Vector   10  Occ=0.000000D+00  E= 6.612857D-02

 Vector   11  Occ=0.000000D+00  E= 1.195853D-01

 Vector   12  Occ=0.000000D+00  E= 1.676837D-01

 Vector   13  Occ=0.000000D+00  E= 8.088303D-01

 Vector   14  Occ=0.000000D+00  E= 8.228118D-01

 Vector   15  Occ=0.000000D+00  E= 9.063921D-01

 Vector   16  Occ=0.000000D+00  E= 9.224975D-01

 Vector   17  Occ=0.000000D+00  E= 1.004325D+00

 Vector   18  Occ=0.000000D+00  E= 1.021780D+00

 Vector   19  Occ=0.000000D+00  E= 1.079719D+00

 Vector   20  Occ=0.000000D+00  E= 1.084013D+00

 Vector   21  Occ=0.000000D+00  E= 1.369472D+00

 Vector   22  Occ=0.000000D+00  E= 1.455554D+00

 Vector   23  Occ=0.000000D+00  E= 1.523235D+00

 Vector   24  Occ=0.000000D+00  E= 1.553922D+00

 Vector   25  Occ=0.000000D+00  E= 1.634241D+00

 Vector   26  Occ=0.000000D+00  E= 1.703302D+00

 Vector   27  Occ=0.000000D+00  E= 1.979650D+00

 Vector   28  Occ=0.000000D+00  E= 2.122012D+00

 Vector   29  Occ=0.000000D+00  E= 2.221053D+00

 Vector   30  Occ=0.000000D+00  E= 2.405994D+00

 Vector   31  Occ=0.000000D+00  E= 2.437395D+00

 Vector   32  Occ=0.000000D+00  E= 2.666152D+00

 Vector   33  Occ=0.000000D+00  E= 2.721960D+00

 Vector   34  Occ=0.000000D+00  E= 2.761289D+00

 Vector   35  Occ=0.000000D+00  E= 2.912750D+00

 Vector   36  Occ=0.000000D+00  E= 3.027909D+00

 Vector   37  Occ=0.000000D+00  E= 3.446045D+00

 Vector   38  Occ=0.000000D+00  E= 3.528608D+00

         Total DFT energy =     -151.487032663392

                       DFT Final Molecular Orbital Analysis
                       ------------------------------------

 Vector    1  Occ=2.000000D+00  E=-1.927392D+01

 Vector    2  Occ=2.000000D+00  E=-1.927391D+01

 Vector    3  Occ=2.000000D+00  E=-1.174843D+00

 Vector    4  Occ=2.000000D+00  E=-9.708991D-01

 Vector    5  Occ=2.000000D+00  E=-5.807833D-01

 Vector    6  Occ=2.000000D+00  E=-5.485597D-01

 Vector    7  Occ=2.000000D+00  E=-4.764127D-01

 Vector    8  Occ=2.000000D+00  E=-3.797477D-01

 Vector    9  Occ=2.000000D+00  E=-3.480711D-01

 Vector   10  Occ=0.000000D+00  E= 6.612857D-02

 Vector   11  Occ=0.000000D+00  E= 1.195853D-01

 Vector   12  Occ=0.000000D+00  E= 1.676837D-01

 Vector   13  Occ=0.000000D+00  E= 8.088303D-01

 Vector   14  Occ=0.000000D+00  E= 8.228118D-01

 Vector   15  Occ=0.000000D+00  E= 9.063921D-01

 Vector   16  Occ=0.000000D+00  E= 9.224975D-01

 Vector   17  Occ=0.000000D+00  E= 1.004325D+00

 Vector   18  Occ=0.000000D+00  E= 1.021780D+00

 Vector   19  Occ=0.000000D+00  E= 1.079719D+00

 Vector   20  Occ=0.000000D+00  E= 1.084013D+00

 Vector   21  Occ=0.000000D+00  E= 1.369472D+00

 Vector   22  Occ=0.000000D+00  E= 1.455554D+00

 Vector   23  Occ=0.000000D+00  E= 1.523235D+00

 Vector   24  Occ=0.000000D+00  E= 1.553922D+00

 Vector   25  Occ=0.000000D+00  E= 1.634241D+00

 Vector   26  Occ=0.000000D+00  E= 1.703302D+00

 Vector   27  Occ=0.000000D+00  E= 1.979650D+00

 Vector   28  Occ=0.000000D+00  E= 2.122012D+00

 Vector   29  Occ=0.000000D+00  E= 2.221053D+00

 Vector   30  Occ=0.000000D+00  E= 2.405994D+00

 Vector   31  Occ=0.000000D+00  E= 2.437395D+00

 Vector   32  Occ=0.000000D+00  E= 2.666152D+00

 Vector   33  Occ=0.000000D+00  E= 2.721960D+00

 Vector   34  Occ=0.000000D+00  E= 2.761289D+00

 Vector   35  Occ=0.000000D+00  E= 2.912750D+00

 Vector   36  Occ=0.000000D+00  E= 3.027909D+00

 Vector   37  Occ=0.000000D+00  E= 3.446045D+00

 Vector   38  Occ=0.000000D+00  E= 3.528608D+00

     Multipole analysis of the density
     ---------------------------------

     L   x y z        total         alpha         beta         nuclear
     -   - - -        -----         -----         ----         -------
     0   0 0 0     -0.000000     -9.000000     -9.000000     18.000000

     1   1 0 0     -0.790758      0.096083      0.096083     -0.982925
     1   0 1 0      0.000019      0.000010      0.000010      0.000000
     1   0 0 1     -0.035488      0.004453      0.004453     -0.044394

     2   2 0 0     -8.290826     -5.195535     -5.195535      2.100244
     2   1 1 0      0.095521     -0.065243     -0.065243      0.226008
     2   1 0 1     -0.003663      0.783919      0.783919     -1.571502
     2   0 2 0     -7.003007     -5.756041     -5.756041      4.509075
     2   0 1 1     -2.150424      1.472348      1.472348     -5.095120

  Root   1 singlet a              0.206366066 a.u.                5.6155 eV
     Dipole Oscillator Strength                    0.0001565731
  Root   2 singlet a              0.243317855 a.u.                6.6210 eV
     Dipole Oscillator Strength                    0.0041512567
  Root   3 singlet a              0.297717475 a.u.                8.1013 eV
     Dipole Oscillator Strength                    0.0044922776
  Root   4 singlet a              0.321795037 a.u.                8.7565 eV
     Dipole Oscillator Strength                    0.0038322981
  Root   5 singlet a              0.354929750 a.u.                9.6581 eV
     Dipole Oscillator Strength                    0.0152715457
  Root   6 singlet a              0.374514394 a.u.               10.1911 eV
     Dipole Oscillator Strength                    0.0751346520
  Root   7 singlet a              0.379861231 a.u.               10.3366 eV
     Dipole Oscillator Strength                    0.0597089669
  Root   8 singlet a              0.411461111 a.u.               11.1964 eV
     Dipole Oscillator Strength                    0.0044312989
  Root   9 singlet a              0.434876215 a.u.               11.8336 eV
     Dipole Oscillator Strength                    0.0141359488
  Root  10 singlet a              0.472741313 a.u.               12.8640 eV
     Dipole Oscillator Strength                    0.0328407728
 Total times  cpu:      112.3s     wall:      112.9s
