============================== echo of input deck ==============================
echo

start h2o2-prop-notrans
title h2o2-prop-notrans

geometry units angstrom nocenter
symmetry c1
  O     -1.917190     -0.120353     -0.010972
  O     -0.426534     -0.047349      0.013490
  H     -0.255812     -0.659080      0.763619
  H     -2.118984      0.784440      0.315334
end

basis
  * library 6-31G**
end

dft
direct
xc xcamb88 1.00 lyp 0.81 vwn_5 0.19 hfexch 1.00
cam 0.33 cam_alpha 0.19 cam_beta 0.46
iterations 100
tolerances tight
end

cosmo
 dielec 78
end

property
 aoresponse  1  0.077318
 convergence 1e-7
 orbeta
 giao
end

set prop:newaoresp 1

set cphf:thresh 1e-6
set cphf:acc 1.0d-10

task dft property
================================================================================

 Output coordinates in angstroms (scale by  1.889725989 to convert to a.u.)

  No.       Tag          Charge          X              Y              Z
 ---- ---------------- ---------- -------------- -------------- --------------
    1 O                    8.0000    -1.91719000    -0.12035300    -0.01097200
    2 O                    8.0000    -0.42653400    -0.04734900     0.01349000
    3 H                    1.0000    -0.25581200    -0.65908000     0.76361900
    4 H                    1.0000    -2.11898400     0.78444000     0.31533400

         Total DFT energy =     -151.502978879295

                       DFT Final Molecular Orbital Analysis
                       ------------------------------------

 Vector    1  Occ=2.000000D+00  E=-1.927951D+01

 Vector    2  Occ=2.000000D+00  E=-1.927936D+01

 Vector    3  Occ=2.000000D+00  E=-1.175817D+00

 Vector    4  Occ=2.000000D+00  E=-9.705029D-01

 Vector    5  Occ=2.000000D+00  E=-5.804556D-01

 Vector    6  Occ=2.000000D+00  E=-5.519175D-01

 Vector    7  Occ=2.000000D+00  E=-4.826236D-01

 Vector    8  Occ=2.000000D+00  E=-3.834741D-01

 Vector    9  Occ=2.000000D+00  E=-3.528385D-01

 Vector   10  Occ=0.000000D+00  E= 6.634517D-02

 Vector   11  Occ=0.000000D+00  E= 1.399757D-01

 Vector   12  Occ=0.000000D+00  E= 1.875584D-01

 Vector   13  Occ=0.000000D+00  E= 8.110816D-01

 Vector   14  Occ=0.000000D+00  E= 8.286804D-01

 Vector   15  Occ=0.000000D+00  E= 8.746347D-01

 Vector   16  Occ=0.000000D+00  E= 8.845479D-01

 Vector   17  Occ=0.000000D+00  E= 9.744782D-01

 Vector   18  Occ=0.000000D+00  E= 1.009235D+00

 Vector   19  Occ=0.000000D+00  E= 1.038889D+00

 Vector   20  Occ=0.000000D+00  E= 1.073852D+00

 Vector   21  Occ=0.000000D+00  E= 1.247879D+00

 Vector   22  Occ=0.000000D+00  E= 1.375506D+00

 Vector   23  Occ=0.000000D+00  E= 1.483366D+00

 Vector   24  Occ=0.000000D+00  E= 1.516502D+00

 Vector   25  Occ=0.000000D+00  E= 1.626045D+00

 Vector   26  Occ=0.000000D+00  E= 1.698654D+00

 Vector   27  Occ=0.000000D+00  E= 1.975506D+00

 Vector   28  Occ=0.000000D+00  E= 2.123746D+00

 Vector   29  Occ=0.000000D+00  E= 2.219820D+00

 Vector   30  Occ=0.000000D+00  E= 2.400766D+00

 Vector   31  Occ=0.000000D+00  E= 2.429294D+00

 Vector   32  Occ=0.000000D+00  E= 2.674772D+00

 Vector   33  Occ=0.000000D+00  E= 2.728543D+00

 Vector   34  Occ=0.000000D+00  E= 2.765954D+00

 Vector   35  Occ=0.000000D+00  E= 2.906282D+00

 Vector   36  Occ=0.000000D+00  E= 3.003042D+00

 Vector   37  Occ=0.000000D+00  E= 3.407882D+00

 Vector   38  Occ=0.000000D+00  E= 3.495487D+00

 Vector   39  Occ=0.000000D+00  E= 3.601547D+00

 Vector   40  Occ=0.000000D+00  E= 3.823341D+00

     Multipole analysis of the density
     ---------------------------------

     L   x y z        total         alpha         beta         nuclear
     -   - - -        -----         -----         ----         -------
     0   0 0 0     -0.000000     -9.000000     -9.000000     18.000000

     1   1 0 0     -0.025260     19.947211     19.947211    -39.919683
     1   0 1 0      0.242975      1.270683      1.270683     -2.298391
     1   0 0 1      0.891708     -0.592642     -0.592642      2.076992

     2   2 0 0     -7.863557    -67.168048    -67.168048    126.472539
     2   1 1 0     -2.879149     -2.357104     -2.357104      1.835059
     2   1 0 1     -1.330774      0.658190      0.658190     -2.647155
     2   0 2 0     -7.265530     -5.746026     -5.746026      4.226522
     2   0 1 1     -0.467604      0.213423      0.213423     -0.894449

 Total times  cpu:        6.5s     wall:        6.7s
