============================== echo of input deck ==============================
echo
start h2o_diag_to_cg_dat

geometry units au
 O 0       0        0
 H 0       1.430   -1.107
 H 0      -1.430   -1.107
end

basis
  O library 6-31g*
  H library 6-31g*
end

dft
  iterations 2
  convergence nr 0.0
end

task dft ignore

dft
  cgmin
  iterations 15
  convergence nr 0.0
end

task dft
================================================================================

 Output coordinates in a.u. (scale by  1.000000000 to convert to a.u.)

  No.       Tag          Charge          X              Y              Z
 ---- ---------------- ---------- -------------- -------------- --------------
    1 O                    8.0000     0.00000000     0.00000000     0.22140000
    2 H                    1.0000    -1.43000000     0.00000000    -0.88560000
    3 H                    1.0000     1.43000000     0.00000000    -0.88560000

         Total DFT energy =      -75.772697089554

 Vector    1  Occ=2.000000D+00  E=-1.866126D+01  Symmetry=a1

 Vector    2  Occ=2.000000D+00  E=-9.340166D-01  Symmetry=a1

 Vector    3  Occ=2.000000D+00  E=-4.929842D-01  Symmetry=b1

 Vector    4  Occ=2.000000D+00  E=-3.347761D-01  Symmetry=a1

 Vector    5  Occ=2.000000D+00  E=-2.586604D-01  Symmetry=b2

 Vector    6  Occ=0.000000D+00  E= 3.201340D-02  Symmetry=a1

 Vector    7  Occ=0.000000D+00  E= 1.154167D-01  Symmetry=b1

 Vector    8  Occ=0.000000D+00  E= 7.313323D-01  Symmetry=b1

 Vector    9  Occ=0.000000D+00  E= 7.902872D-01  Symmetry=a1

 Vector   10  Occ=0.000000D+00  E= 8.063302D-01  Symmetry=b2

 Vector   11  Occ=0.000000D+00  E= 8.400792D-01  Symmetry=a1

 Vector   12  Occ=0.000000D+00  E= 9.782485D-01  Symmetry=b1

 Vector   13  Occ=0.000000D+00  E= 1.121148D+00  Symmetry=a1

 Vector   14  Occ=0.000000D+00  E= 1.638532D+00  Symmetry=a1

 Vector   15  Occ=0.000000D+00  E= 1.653258D+00  Symmetry=a2

 Vector   16  Occ=0.000000D+00  E= 1.691644D+00  Symmetry=b2

 Vector   17  Occ=0.000000D+00  E= 2.205802D+00  Symmetry=a1

 Vector   18  Occ=0.000000D+00  E= 2.505058D+00  Symmetry=b1

 Vector   19  Occ=0.000000D+00  E= 3.453652D+00  Symmetry=a1

     Multipole analysis of the density
     ---------------------------------

     L   x y z        total         alpha         beta         nuclear
     -   - - -        -----         -----         ----         -------
     0   0 0 0     -0.000000     -5.000000     -5.000000     10.000000

     1   1 0 0      0.000000      0.000000      0.000000      0.000000
     1   0 1 0      0.000000      0.000000      0.000000      0.000000
     1   0 0 1     -0.887957     -0.443978     -0.443978      0.000000

     2   2 0 0     -2.932659     -3.511229     -3.511229      4.089800
     2   1 1 0      0.000000      0.000000      0.000000      0.000000
     2   1 0 1      0.000000      0.000000      0.000000      0.000000
     2   0 2 0     -5.239070     -2.619535     -2.619535      0.000000
     2   0 1 1      0.000000      0.000000      0.000000      0.000000

         Total DFT energy =      -75.844330213467

                       DFT Final Molecular Orbital Analysis
                       ------------------------------------

 Vector    1  Occ=2.000000D+00  E=-1.859871D+01  Symmetry=a1

 Vector    2  Occ=2.000000D+00  E=-9.033277D-01  Symmetry=a1

 Vector    3  Occ=2.000000D+00  E=-4.676998D-01  Symmetry=b1

 Vector    4  Occ=2.000000D+00  E=-3.107497D-01  Symmetry=a1

 Vector    5  Occ=2.000000D+00  E=-2.310764D-01  Symmetry=b2

 Vector    6  Occ=0.000000D+00  E= 4.307199D-02  Symmetry=a1

 Vector    7  Occ=0.000000D+00  E= 1.268027D-01  Symmetry=b1

 Vector    8  Occ=0.000000D+00  E= 7.441801D-01  Symmetry=b1

 Vector    9  Occ=0.000000D+00  E= 8.119745D-01  Symmetry=a1

 Vector   10  Occ=0.000000D+00  E= 8.285014D-01  Symmetry=b2

 Vector   11  Occ=0.000000D+00  E= 8.536403D-01  Symmetry=a1

 Vector   12  Occ=0.000000D+00  E= 9.992139D-01  Symmetry=b1

 Vector   13  Occ=0.000000D+00  E= 1.136704D+00  Symmetry=a1

 Vector   14  Occ=0.000000D+00  E= 1.658911D+00  Symmetry=a1

 Vector   15  Occ=0.000000D+00  E= 1.673459D+00  Symmetry=a2

 Vector   16  Occ=0.000000D+00  E= 1.711514D+00  Symmetry=b2

 Vector   17  Occ=0.000000D+00  E= 2.223785D+00  Symmetry=a1

 Vector   18  Occ=0.000000D+00  E= 2.524504D+00  Symmetry=b1

 Vector   19  Occ=0.000000D+00  E= 3.478454D+00  Symmetry=a1

 Total times  cpu:        0.2s     wall:        0.3s
