============================== echo of input deck ==============================

echo
start h2o_core

memory 1000 mb

geometry units au noautosym noautoz
 O 0.00000000     0.00000000     0.22170860
 H 0.00000000     1.43758081    -0.88575430
 H 0.00000000    -1.43758081    -0.88575430
end

basis
  O library 6-31g*
  H library 6-31g*
end

dft
  xc beckehandh
  print "final vector analysis"
end
task dft

tddft
  ecut -10
  nroots 5
  notriplet
  thresh 1d-03
end
task tddft

tddft
  ewin -20.0 -10.0
  cis
  nroots 5
  notriplet
  thresh 1d-03
end
task tddft

dft
  odft
  mult 1
  xc beckehandh
  print "final vector analysis"
end
task dft

tddft
  alpha 1 1
  beta 1 1
  cis
  nroots 10
  notriplet
  thresh 1d-03
end
task tddft
================================================================================

 Output coordinates in a.u. (scale by  1.000000000 to convert to a.u.)

  No.       Tag          Charge          X              Y              Z
 ---- ---------------- ---------- -------------- -------------- --------------
    1 O                    8.0000     0.00000000     0.00000000     0.22149258
    2 H                    1.0000     0.00000000     1.43758081    -0.88597032
    3 H                    1.0000     0.00000000    -1.43758081    -0.88597032

         Total DFT energy =      -75.924565802900
         Total DFT energy =      -75.924565803476

 Vector   11  Occ=0.000000D+00  E= 9.985912D-01

 Vector   12  Occ=0.000000D+00  E= 1.186464D+00

 Vector   13  Occ=0.000000D+00  E= 1.282436D+00

 Vector   14  Occ=0.000000D+00  E= 1.841623D+00

 Vector   15  Occ=0.000000D+00  E= 1.854645D+00

  Root   1 singlet a             19.477339932 a.u.              530.0056 eV
     Dipole Oscillator Strength                         0.01752
  Root   2 singlet a             19.530640481 a.u.              531.4560 eV
     Dipole Oscillator Strength                         0.03907
  Root   3 singlet a             20.160929566 a.u.              548.6070 eV
     Dipole Oscillator Strength                         0.06552
  Root   4 singlet a             20.195886874 a.u.              549.5583 eV
     Dipole Oscillator Strength                         0.00435
  Root   5 singlet a             20.301533971 a.u.              552.4331 eV
     Dipole Oscillator Strength                         0.00010
         Total DFT energy =      -75.924565803477

 Vector    1  Occ=2.000000D+00  E=-1.957731D+01

 Vector    2  Occ=2.000000D+00  E=-1.119146D+00

 Vector    3  Occ=2.000000D+00  E=-5.860238D-01

 Vector    4  Occ=2.000000D+00  E=-4.398893D-01

 Vector    5  Occ=2.000000D+00  E=-3.634745D-01

 Vector    6  Occ=0.000000D+00  E= 1.285620D-01

 Vector    7  Occ=0.000000D+00  E= 2.176795D-01

 Vector    8  Occ=0.000000D+00  E= 8.834228D-01

 Vector    9  Occ=0.000000D+00  E= 9.884568D-01

 Vector   10  Occ=0.000000D+00  E= 9.924188D-01

 Vector   11  Occ=0.000000D+00  E= 9.985914D-01

 Vector   12  Occ=0.000000D+00  E= 1.186464D+00

 Vector   13  Occ=0.000000D+00  E= 1.282436D+00

 Vector   14  Occ=0.000000D+00  E= 1.841623D+00

 Vector   15  Occ=0.000000D+00  E= 1.854645D+00

  Root   1 singlet a             19.477492306 a.u.              530.0098 eV
     Dipole Oscillator Strength                         0.01810
  Root   2 singlet a             19.530739639 a.u.              531.4587 eV
     Dipole Oscillator Strength                         0.03999
  Root   3 singlet a             20.161132813 a.u.              548.6126 eV
     Dipole Oscillator Strength                         0.06759
  Root   4 singlet a             20.195898972 a.u.              549.5586 eV
     Dipole Oscillator Strength                         0.00439
  Root   5 singlet a             20.301624261 a.u.              552.4355 eV
     Dipole Oscillator Strength                         0.00009
         Total DFT energy =      -75.924565803475

 Vector    1  Occ=1.000000D+00  E=-1.957731D+01

 Vector    2  Occ=1.000000D+00  E=-1.119146D+00

 Vector    3  Occ=1.000000D+00  E=-5.860238D-01

 Vector    4  Occ=1.000000D+00  E=-4.398893D-01

 Vector    5  Occ=1.000000D+00  E=-3.634745D-01

 Vector    6  Occ=0.000000D+00  E= 1.285620D-01

 Vector    7  Occ=0.000000D+00  E= 2.176795D-01

 Vector    8  Occ=0.000000D+00  E= 8.834228D-01

 Vector    9  Occ=0.000000D+00  E= 9.884568D-01

 Vector   10  Occ=0.000000D+00  E= 9.924188D-01

 Vector   11  Occ=0.000000D+00  E= 9.985914D-01

 Vector   12  Occ=0.000000D+00  E= 1.186464D+00

 Vector   13  Occ=0.000000D+00  E= 1.282436D+00

 Vector   14  Occ=0.000000D+00  E= 1.841623D+00

 Vector   15  Occ=0.000000D+00  E= 1.854645D+00

 Vector    1  Occ=1.000000D+00  E=-1.957731D+01

 Vector    2  Occ=1.000000D+00  E=-1.119146D+00

 Vector    3  Occ=1.000000D+00  E=-5.860238D-01

 Vector    4  Occ=1.000000D+00  E=-4.398893D-01

 Vector    5  Occ=1.000000D+00  E=-3.634745D-01

 Vector    6  Occ=0.000000D+00  E= 1.285620D-01

 Vector    7  Occ=0.000000D+00  E= 2.176795D-01

 Vector    8  Occ=0.000000D+00  E= 8.834228D-01

 Vector    9  Occ=0.000000D+00  E= 9.884568D-01

 Vector   10  Occ=0.000000D+00  E= 9.924188D-01

 Vector   11  Occ=0.000000D+00  E= 9.985914D-01

 Vector   12  Occ=0.000000D+00  E= 1.186464D+00

 Vector   13  Occ=0.000000D+00  E= 1.282436D+00

 Vector   14  Occ=0.000000D+00  E= 1.841623D+00

 Vector   15  Occ=0.000000D+00  E= 1.854645D+00

         Total DFT energy =      -75.924565803475

                    DFT Final Alpha Molecular Orbital Analysis
                    ------------------------------------------

 Vector    1  Occ=1.000000D+00  E=-1.957731D+01

 Vector    2  Occ=1.000000D+00  E=-1.119146D+00

 Vector    3  Occ=1.000000D+00  E=-5.860238D-01

 Vector    4  Occ=1.000000D+00  E=-4.398893D-01

 Vector    5  Occ=1.000000D+00  E=-3.634745D-01

 Vector    6  Occ=0.000000D+00  E= 1.285620D-01

 Vector    7  Occ=0.000000D+00  E= 2.176795D-01

 Vector    8  Occ=0.000000D+00  E= 8.834228D-01

 Vector    9  Occ=0.000000D+00  E= 9.884568D-01

 Vector   10  Occ=0.000000D+00  E= 9.924188D-01

 Vector   11  Occ=0.000000D+00  E= 9.985914D-01

 Vector   12  Occ=0.000000D+00  E= 1.186464D+00

 Vector   13  Occ=0.000000D+00  E= 1.282436D+00

 Vector   14  Occ=0.000000D+00  E= 1.841623D+00

 Vector   15  Occ=0.000000D+00  E= 1.854645D+00

 Vector    1  Occ=1.000000D+00  E=-1.957731D+01

 Vector    2  Occ=1.000000D+00  E=-1.119146D+00

 Vector    3  Occ=1.000000D+00  E=-5.860238D-01

 Vector    4  Occ=1.000000D+00  E=-4.398893D-01

 Vector    5  Occ=1.000000D+00  E=-3.634745D-01

 Vector    6  Occ=0.000000D+00  E= 1.285620D-01

 Vector    7  Occ=0.000000D+00  E= 2.176795D-01

 Vector    8  Occ=0.000000D+00  E= 8.834228D-01

 Vector    9  Occ=0.000000D+00  E= 9.884568D-01

 Vector   10  Occ=0.000000D+00  E= 9.924188D-01

 Vector   11  Occ=0.000000D+00  E= 9.985914D-01

 Vector   12  Occ=0.000000D+00  E= 1.186464D+00

 Vector   13  Occ=0.000000D+00  E= 1.282436D+00

 Vector   14  Occ=0.000000D+00  E= 1.841623D+00

 Vector   15  Occ=0.000000D+00  E= 1.854645D+00

     Multipole analysis of the density
     ---------------------------------

     L   x y z        total         alpha         beta         nuclear
     -   - - -        -----         -----         ----         -------
     0   0 0 0      0.000000     -5.000000     -5.000000     10.000000

     1   1 0 0      0.000000      0.000000      0.000000      0.000000
     1   0 1 0      0.000000      0.000000      0.000000      0.000000
     1   0 0 1     -0.858354     -0.429177     -0.429177      0.000000

     2   2 0 0     -5.382729     -2.691365     -2.691365      0.000000
     2   1 1 0      0.000000      0.000000      0.000000      0.000000
     2   1 0 1      0.000000      0.000000      0.000000      0.000000
     2   0 2 0     -3.103808     -3.618542     -3.618542      4.133277
     2   0 1 1      0.000000      0.000000      0.000000      0.000000

  Root   1         a             19.430295779 a.u.              528.7255 eV
     Dipole Oscillator Strength                         0.00000
  Root   2         a             19.477492284 a.u.              530.0098 eV
     Dipole Oscillator Strength                         0.01810
  Root   3         a             19.489729801 a.u.              530.3428 eV
     Dipole Oscillator Strength                         0.00000
  Root   4         a             19.530739613 a.u.              531.4587 eV
     Dipole Oscillator Strength                         0.03999
  Root   5         a             20.079243000 a.u.              546.3842 eV
     Dipole Oscillator Strength                         0.00000
  Root   6         a             20.161132792 a.u.              548.6126 eV
     Dipole Oscillator Strength                         0.06759
  Root   7         a             20.188799719 a.u.              549.3654 eV
     Dipole Oscillator Strength                         0.00000
  Root   8         a             20.195898946 a.u.              549.5586 eV
     Dipole Oscillator Strength                         0.00439
  Root   9         a             20.276291835 a.u.              551.7462 eV
     Dipole Oscillator Strength                         0.00000
  Root  10         a             20.301624236 a.u.              552.4355 eV
     Dipole Oscillator Strength                         0.00009
 Total times  cpu:        7.2s     wall:       15.2s
