============================== echo of input deck ==============================
echo
start h2o_opt_dat

geometry h2o_c1 units angstroms
  symmetry c1
  zmatrix
    O
    H 1 OH1
    H 1 OH2 2 HOH
  variables
    HOH 108.0
    OH1  1.2
  constants
    OH2  1.2
  end
end

geometry h2o_c2v units angstroms
  zmatrix
    O
    H 1 OH1
    H 1 OH2 2 HOH
  variables
    HOH 108.0
    OH1  1.2
  constants
    OH2  1.2
  end
end

geometry h2o_cs units angstroms
  zmatrix
    O
    H  1 OH1
    H1 1 OH2 2 HOH
  variables
    HOH 108.0
    OH1  1.2
  constants
    OH2  1.2
  end
end

geometry h2o_cart units angstrom
    O      0.00000000     0.00000000    -0.14106846
    H     -0.97082039     0.00000000     0.56427384
    H      0.97082039     0.00000000     0.56427384
end

geometry h2o_cart adjust
  zcoord
    bond 1 3 1.2  r constant
  end
end

basis
  * library 6-31G*
end

driver
  clear
end

set geometry h2o_c1
task scf optimize

driver
  clear
end

set geometry h2o_c2v
task scf optimize

driver
  clear
end

set geometry h2o_cs
task scf optimize

driver
  clear
end

set geometry h2o_cart
task scf optimize
================================================================================

         Total SCF energy =    -75.927887775233
@ Step       Energy      Delta E   Gmax     Grms     Xrms     Xmax   Walltime
@ ---- ---------------- -------- -------- -------- -------- -------- --------
@    0     -75.92788778  0.0D+00  0.13138  0.07628  0.00000  0.00000      0.2
         Total SCF energy =    -75.962541683265
         Total SCF energy =    -75.933502776014
@    1     -75.93350278 -5.6D-03  0.26017  0.15128  0.27766  0.58929      0.3
         Total SCF energy =    -75.968592527988
         Total SCF energy =    -75.968121529834
@    2     -75.96812153 -3.5D-02  0.01323  0.01008  0.09366  0.20075      0.5
         Total SCF energy =    -75.969692380696
         Total SCF energy =    -75.969759141404
@    3     -75.96975914 -1.6D-03  0.00760  0.00439  0.04728  0.08221      0.7
         Total SCF energy =    -75.969799763149
         Total SCF energy =    -75.969805682268
@    4     -75.96980568 -4.7D-05  0.00009  0.00006  0.00303  0.00704      0.8
         Total SCF energy =    -75.969805706595
         Total SCF energy =    -75.969805706595
@    5     -75.96980571 -2.4D-08  0.00000  0.00000  0.00014  0.00025      0.9
@    5     -75.96980571 -2.4D-08  0.00000  0.00000  0.00014  0.00025      0.9
         Total SCF energy =    -75.927887775283
@ Step       Energy      Delta E   Gmax     Grms     Xrms     Xmax   Walltime
@ ---- ---------------- -------- -------- -------- -------- -------- --------
@    0     -75.92788778  0.0D+00  0.13138  0.07628  0.00000  0.00000      1.1
         Total SCF energy =    -75.962541683283
         Total SCF energy =    -75.933503747171
@    1     -75.93350375 -5.6D-03  0.26017  0.15128  0.27766  0.66572      1.2
         Total SCF energy =    -75.968592539355
         Total SCF energy =    -75.968121571017
@    2     -75.96812157 -3.5D-02  0.01323  0.01008  0.09366  0.22505      1.4
         Total SCF energy =    -75.969692379439
         Total SCF energy =    -75.969759146598
@    3     -75.96975915 -1.6D-03  0.00760  0.00439  0.04728  0.08588      1.6
         Total SCF energy =    -75.969799763953
         Total SCF energy =    -75.969805682197
@    4     -75.96980568 -4.7D-05  0.00009  0.00006  0.00303  0.00628      1.7
         Total SCF energy =    -75.969805706631
         Total SCF energy =    -75.969805706631
@    5     -75.96980571 -2.4D-08  0.00000  0.00000  0.00014  0.00025      1.8
@    5     -75.96980571 -2.4D-08  0.00000  0.00000  0.00014  0.00025      1.8
         Total SCF energy =    -75.927887775287
@ Step       Energy      Delta E   Gmax     Grms     Xrms     Xmax   Walltime
@ ---- ---------------- -------- -------- -------- -------- -------- --------
@    0     -75.92788778  0.0D+00  0.13138  0.07628  0.00000  0.00000      2.0
         Total SCF energy =    -75.962541683283
         Total SCF energy =    -75.933505299515
@    1     -75.93350530 -5.6D-03  0.26016  0.15127  0.27766  0.66571      2.2
         Total SCF energy =    -75.968592547138
         Total SCF energy =    -75.968121629531
@    2     -75.96812163 -3.5D-02  0.01323  0.01008  0.09366  0.22504      2.4
         Total SCF energy =    -75.969692380392
         Total SCF energy =    -75.969759156070
@    3     -75.96975916 -1.6D-03  0.00760  0.00439  0.04728  0.08588      2.6
         Total SCF energy =    -75.969799765235
         Total SCF energy =    -75.969805682234
@    4     -75.96980568 -4.7D-05  0.00009  0.00006  0.00303  0.00628      2.8
         Total SCF energy =    -75.969805706631
         Total SCF energy =    -75.969805706631
@    5     -75.96980571 -2.4D-08  0.00000  0.00000  0.00014  0.00025      3.0
@    5     -75.96980571 -2.4D-08  0.00000  0.00000  0.00014  0.00025      3.0
         Total SCF energy =    -75.927887776315
@ Step       Energy      Delta E   Gmax     Grms     Xrms     Xmax   Walltime
@ ---- ---------------- -------- -------- -------- -------- -------- --------
@    0     -75.92788778  0.0D+00  0.13138  0.07628  0.00000  0.00000      3.1
         Total SCF energy =    -75.962541683850
         Total SCF energy =    -75.933505304860
@    1     -75.93350530 -5.6D-03  0.26016  0.15127  0.27766  0.66571      3.3
         Total SCF energy =    -75.968592547245
         Total SCF energy =    -75.968121629772

 Vector    6  Occ=0.000000D+00  E= 1.650143D-01

 Vector    7  Occ=0.000000D+00  E= 2.766621D-01

 Vector    8  Occ=0.000000D+00  E= 9.218354D-01

 Vector    9  Occ=0.000000D+00  E= 1.108685D+00

 Vector   10  Occ=0.000000D+00  E= 1.145724D+00

 Vector   11  Occ=0.000000D+00  E= 1.163871D+00

 Vector   12  Occ=0.000000D+00  E= 1.356878D+00

 Vector   13  Occ=0.000000D+00  E= 1.479538D+00

 Vector   14  Occ=0.000000D+00  E= 2.020671D+00

 Vector   15  Occ=0.000000D+00  E= 2.053661D+00

@    2     -75.96812163 -3.5D-02  0.01323  0.01008  0.09366  0.22504      3.4
         Total SCF energy =    -75.969692380385

 Vector    2  Occ=2.000000D+00  E=-1.304711D+00

 Vector    3  Occ=2.000000D+00  E=-6.565195D-01

 Vector    4  Occ=2.000000D+00  E=-5.455470D-01

 Vector    5  Occ=2.000000D+00  E=-4.945689D-01

 Vector    6  Occ=0.000000D+00  E= 1.660135D-01

 Vector    7  Occ=0.000000D+00  E= 2.790684D-01

 Vector    8  Occ=0.000000D+00  E= 9.363739D-01

 Vector    9  Occ=0.000000D+00  E= 1.103078D+00

 Vector   10  Occ=0.000000D+00  E= 1.147096D+00

 Vector   11  Occ=0.000000D+00  E= 1.166978D+00

 Vector   12  Occ=0.000000D+00  E= 1.366837D+00

 Vector   13  Occ=0.000000D+00  E= 1.438708D+00

 Vector   14  Occ=0.000000D+00  E= 2.039193D+00

 Vector   15  Occ=0.000000D+00  E= 2.052447D+00

         Total SCF energy =    -75.969759156124

 Vector    2  Occ=2.000000D+00  E=-1.305970D+00

 Vector    3  Occ=2.000000D+00  E=-6.548178D-01

 Vector    4  Occ=2.000000D+00  E=-5.481260D-01

 Vector    5  Occ=2.000000D+00  E=-4.953605D-01

 Vector    6  Occ=0.000000D+00  E= 1.660327D-01

 Vector    7  Occ=0.000000D+00  E= 2.786198D-01

 Vector    8  Occ=0.000000D+00  E= 9.341070D-01

 Vector    9  Occ=0.000000D+00  E= 1.104371D+00

 Vector   10  Occ=0.000000D+00  E= 1.146447D+00

 Vector   11  Occ=0.000000D+00  E= 1.166395D+00

 Vector   12  Occ=0.000000D+00  E= 1.364939D+00

 Vector   13  Occ=0.000000D+00  E= 1.446020D+00

 Vector   14  Occ=0.000000D+00  E= 2.035347D+00

 Vector   15  Occ=0.000000D+00  E= 2.052786D+00

@    3     -75.96975916 -1.6D-03  0.00760  0.00439  0.04728  0.08588      3.6
         Total SCF energy =    -75.969799765239

 Vector    2  Occ=2.000000D+00  E=-1.304720D+00

 Vector    3  Occ=2.000000D+00  E=-6.536248D-01

 Vector    4  Occ=2.000000D+00  E=-5.479523D-01

 Vector    5  Occ=2.000000D+00  E=-4.952434D-01

 Vector    6  Occ=0.000000D+00  E= 1.659539D-01

 Vector    7  Occ=0.000000D+00  E= 2.777499D-01

 Vector    8  Occ=0.000000D+00  E= 9.342491D-01

 Vector    9  Occ=0.000000D+00  E= 1.101954D+00

 Vector   10  Occ=0.000000D+00  E= 1.145075D+00

 Vector   11  Occ=0.000000D+00  E= 1.166374D+00

 Vector   12  Occ=0.000000D+00  E= 1.363888D+00

 Vector   13  Occ=0.000000D+00  E= 1.445873D+00

 Vector   14  Occ=0.000000D+00  E= 2.035875D+00

 Vector   15  Occ=0.000000D+00  E= 2.053407D+00

         Total SCF energy =    -75.969805682252

 Vector    2  Occ=2.000000D+00  E=-1.304053D+00

 Vector    3  Occ=2.000000D+00  E=-6.529837D-01

 Vector    4  Occ=2.000000D+00  E=-5.478566D-01

 Vector    5  Occ=2.000000D+00  E=-4.951808D-01

 Vector    6  Occ=0.000000D+00  E= 1.659101D-01

 Vector    7  Occ=0.000000D+00  E= 2.772772D-01

 Vector    8  Occ=0.000000D+00  E= 9.343249D-01

 Vector    9  Occ=0.000000D+00  E= 1.100590D+00

 Vector   10  Occ=0.000000D+00  E= 1.144401D+00

 Vector   11  Occ=0.000000D+00  E= 1.166363D+00

 Vector   12  Occ=0.000000D+00  E= 1.363342D+00

 Vector   13  Occ=0.000000D+00  E= 1.445797D+00

 Vector   14  Occ=0.000000D+00  E= 2.036160D+00

 Vector   15  Occ=0.000000D+00  E= 2.053742D+00

@    4     -75.96980568 -4.7D-05  0.00009  0.00006  0.00303  0.00628      3.8
         Total SCF energy =    -75.969805706648

 Vector    2  Occ=2.000000D+00  E=-1.304045D+00

 Vector    3  Occ=2.000000D+00  E=-6.529342D-01

 Vector    4  Occ=2.000000D+00  E=-5.478897D-01

 Vector    5  Occ=2.000000D+00  E=-4.951894D-01

 Vector    6  Occ=0.000000D+00  E= 1.659083D-01

 Vector    7  Occ=0.000000D+00  E= 2.772512D-01

 Vector    8  Occ=0.000000D+00  E= 9.342926D-01

 Vector    9  Occ=0.000000D+00  E= 1.100558D+00

 Vector   10  Occ=0.000000D+00  E= 1.144365D+00

 Vector   11  Occ=0.000000D+00  E= 1.166354D+00

 Vector   12  Occ=0.000000D+00  E= 1.363292D+00

 Vector   13  Occ=0.000000D+00  E= 1.445903D+00

 Vector   14  Occ=0.000000D+00  E= 2.036116D+00

 Vector   15  Occ=0.000000D+00  E= 2.053760D+00

       Multipole analysis of the density wrt the origin
       ------------------------------------------------

     L   x y z        total         open         nuclear
     -   - - -        -----         ----         -------
     0   0 0 0     -0.000000      0.000000     10.000000

     1   1 0 0      0.920256      0.000000      0.251306
     1   0 1 0      0.072881      0.000000     -1.109961
     1   0 0 1     -0.000000      0.000000      0.000000

     2   2 0 0     -4.347879      0.000000      2.637037
     2   1 1 0      0.095883      0.000000      0.714658
     2   1 0 1      0.000000      0.000000      0.000000
     2   0 2 0     -3.011969      0.000000      5.185106
     2   0 1 1      0.000000      0.000000      0.000000

         Total SCF energy =    -75.969805706648
@    5     -75.96980571 -2.4D-08  0.00000  0.00000  0.00014  0.00025      3.9
@    5     -75.96980571 -2.4D-08  0.00000  0.00000  0.00014  0.00025      3.9

 Output coordinates in angstroms (scale by  1.889725989 to convert to a.u.)

  No.       Tag          Charge          X              Y              Z
 ---- ---------------- ---------- -------------- -------------- --------------
    1 O                    8.0000    -0.12207054    -0.08390943     0.00000000
    2 H                    1.0000     0.51184639    -0.79235068     0.00000000
    3 H                    1.0000     0.59770337     0.87626010     0.00000000

 Total times  cpu:        3.7s     wall:        3.9s
