============================== echo of input deck ==============================
echo
start  c6h6

title "benzene in sto-3g"
geometry autoz units au
   C       1.853049   1.853049    .000000
   C      -2.531312    .678263    .000000
   C        .678263  -2.531312    .000000
   C      -1.853049  -1.853049    .000000
   C       2.531312   -.678263    .000000
   C       -.678263   2.531312    .000000
   H       3.299553   3.299553    .000000
   H      -4.507274   1.207720    .000000
   H       1.207720  -4.507274    .000000
   H      -3.299553  -3.299553    .000000
   H       4.507274  -1.207720    .000000
   H      -1.207720   4.507274    .000000
end
basis
  H library sto-3g
  C library sto-3g
end
task  scf freq
================================================================================

 Output coordinates in a.u. (scale by  1.000000000 to convert to a.u.)

  No.       Tag          Charge          X              Y              Z
 ---- ---------------- ---------- -------------- -------------- --------------
    1 C                    6.0000     1.85304900     1.85304900     0.00000000
    2 C                    6.0000    -2.53131200     0.67826301     0.00000000
    3 C                    6.0000     0.67826301    -2.53131200     0.00000000
    4 C                    6.0000    -1.85304900    -1.85304900     0.00000000
    5 C                    6.0000     2.53131200    -0.67826301     0.00000000
    6 C                    6.0000    -0.67826301     2.53131200     0.00000000
    7 H                    1.0000     3.29955333     3.29955333     0.00000000
    8 H                    1.0000    -4.50727367     1.20772034     0.00000000
    9 H                    1.0000     1.20772034    -4.50727367     0.00000000
   10 H                    1.0000    -3.29955333    -3.29955333     0.00000000
   11 H                    1.0000     4.50727367    -1.20772034     0.00000000
   12 H                    1.0000    -1.20772034     4.50727367     0.00000000

         Total SCF energy =   -227.891360329507

 Vector    7  Occ=2.000000D+00  E=-1.095688D+00

 Vector    8  Occ=2.000000D+00  E=-9.581600D-01

 Vector    9  Occ=2.000000D+00  E=-9.581600D-01

 Vector   10  Occ=2.000000D+00  E=-7.690193D-01

 Vector   11  Occ=2.000000D+00  E=-7.690193D-01

 Vector   12  Occ=2.000000D+00  E=-6.657572D-01

 Vector   13  Occ=2.000000D+00  E=-5.936950D-01

 Vector   14  Occ=2.000000D+00  E=-5.572843D-01

 Vector   15  Occ=2.000000D+00  E=-5.361057D-01

 Vector   16  Occ=2.000000D+00  E=-5.361057D-01

 Vector   17  Occ=2.000000D+00  E=-4.609188D-01

 Vector   18  Occ=2.000000D+00  E=-4.337943D-01

 Vector   19  Occ=2.000000D+00  E=-4.337943D-01

 Vector   20  Occ=2.000000D+00  E=-2.826633D-01

 Vector   21  Occ=2.000000D+00  E=-2.826633D-01

 Vector   22  Occ=0.000000D+00  E= 2.707616D-01

 Vector   23  Occ=0.000000D+00  E= 2.707616D-01

 Vector   24  Occ=0.000000D+00  E= 5.091219D-01

 Vector   25  Occ=0.000000D+00  E= 5.792551D-01

 Vector   26  Occ=0.000000D+00  E= 6.499592D-01

 Vector   27  Occ=0.000000D+00  E= 6.499592D-01

 Vector   28  Occ=0.000000D+00  E= 7.291945D-01

 Vector   29  Occ=0.000000D+00  E= 7.436501D-01

 Vector   30  Occ=0.000000D+00  E= 7.436501D-01

 Vector   31  Occ=0.000000D+00  E= 8.902105D-01

       Multipole analysis of the density wrt the origin
       ------------------------------------------------

     L   x y z        total         open         nuclear
     -   - - -        -----         ----         -------
     0   0 0 0     -0.000000      0.000000     42.000000

     1   1 0 0     -0.000000      0.000000      0.000000
     1   0 1 0      0.000000      0.000000      0.000000
     1   0 0 1     -0.000000      0.000000      0.000000

     2   2 0 0    -23.218694      0.000000    188.938774
     2   1 1 0      0.000000      0.000000      0.000000
     2   1 0 1     -0.000000      0.000000      0.000000
     2   0 2 0    -23.218694      0.000000    188.938774
     2   0 1 1     -0.000000      0.000000      0.000000

 Zero-Point correction to Energy  =   73.035 kcal/mol  (  0.116389 au)
 Thermal correction to Energy     =   75.493 kcal/mol  (  0.120306 au)
 Thermal correction to Enthalpy   =   76.085 kcal/mol  (  0.121250 au)
 Total Entropy                    =   62.637 cal/mol-K
   - Translational                =   38.962 cal/mol-K (mol. weight =  78.0469)
   - Rotational                   =   20.673 cal/mol-K (symmetry #  =       12)
   - Vibrational                  =    3.002 cal/mol-K
   - Translational                  =    2.979 cal/mol-K
   - Rotational                     =    2.979 cal/mol-K
   - Vibrational                    =    8.326 cal/mol-K
 P.Frequency       -0.00       -0.00       -0.00        0.00        0.00        0.00
 P.Frequency      477.96      477.96      700.13      700.13      810.43      841.19
 P.Frequency     1037.59     1037.59     1154.52     1156.75     1172.51     1190.32
 P.Frequency     1190.32     1214.37     1225.78     1225.78     1371.19     1371.19
 P.Frequency     1376.72     1595.23     1772.52     1772.52     1932.52     1932.52
 P.Frequency     3705.26     3723.68     3723.68     3737.37     3737.37     3748.23

 Normal Eigenvalue ||           Projected Infra Red Intensities
  Mode   [cm**-1]  || [atomic units] [(debye/angs)**2] [(KM/mol)] [arbitrary]
 ------ ---------- || -------------- ----------------- ---------- -----------
    1       -0.000 ||    0.000000           0.000         0.000       0.000
    2       -0.000 ||    0.000000           0.000         0.000       0.000
    3       -0.000 ||    0.000000           0.000         0.000       0.000
    4        0.000 ||    0.000000           0.000         0.000       0.000
    5        0.000 ||    0.000000           0.000         0.000       0.000
    6        0.000 ||    0.000000           0.000         0.000       0.000
    7      477.960 ||    0.000000           0.000         0.000       0.000
    8      477.960 ||    0.000000           0.000         0.000       0.000
    9      700.126 ||    0.000000           0.000         0.000       0.000
   10      700.126 ||    0.000000           0.000         0.000       0.000
   11      810.426 ||    0.025238           0.582        24.603     121.239
   12      841.193 ||    0.000000           0.000         0.000       0.000
   13     1037.587 ||    0.000000           0.000         0.000       0.000
   14     1037.587 ||    0.000000           0.000         0.000       0.000
   15     1154.521 ||    0.000000           0.000         0.000       0.000
   16     1156.747 ||    0.000000           0.000         0.000       0.000
   17     1172.512 ||    0.000000           0.000         0.000       0.000
   18     1190.321 ||    0.000000           0.000         0.000       0.000
   19     1190.321 ||    0.000000           0.000         0.000       0.000
   20     1214.374 ||    0.000000           0.000         0.000       0.000
   21     1225.783 ||    0.000228           0.005         0.222       1.093
   22     1225.783 ||    0.000228           0.005         0.222       1.093
   23     1371.190 ||    0.000000           0.000         0.000       0.000
   24     1371.190 ||    0.000000           0.000         0.000       0.000
   25     1376.715 ||    0.000000           0.000         0.000       0.000
   26     1595.232 ||    0.000000           0.000         0.000       0.000
   27     1772.521 ||    0.015565           0.359        15.174      74.773
   28     1772.521 ||    0.015565           0.359        15.174      74.773
   29     1932.521 ||    0.000000           0.000         0.000       0.000
   30     1932.521 ||    0.000000           0.000         0.000       0.000
   31     3705.259 ||    0.000000           0.000         0.000       0.000
   32     3723.684 ||    0.000000           0.000         0.000       0.000
   33     3723.684 ||    0.000000           0.000         0.000       0.000
   34     3737.373 ||    0.009058           0.209         8.831      43.515
   35     3737.373 ||    0.009058           0.209         8.831      43.515
   36     3748.227 ||    0.000000           0.000         0.000       0.000
 ----------------------------------------------------------------------------

 Total times  cpu:        2.2s     wall:        2.3s
