============================== echo of input deck ==============================
echo
start m08hx_h2o

title m08hx_h2o

geometry units angstroms
 O     0.000000     0.000000     0.000000
 H     0.000000     0.000000     0.956914
 H     0.926363     0.000000    -0.239868
end

basis
 H library 6-31+G*
 O library 6-31+G*
end

dft
 iterations 50
 print intermediate energy info
 xc m08-hx
 decomp
 grid lebedev 99 14
 direct
end
task dft
================================================================================

 Output coordinates in angstroms (scale by  1.889725989 to convert to a.u.)

  No.       Tag          Charge          X              Y              Z
 ---- ---------------- ---------- -------------- -------------- --------------
    1 O                    8.0000     0.00000000     0.00000000    -0.11714535
    2 H                    1.0000    -0.75670925     0.00000000     0.46858141
    3 H                    1.0000     0.75670925     0.00000000     0.46858141

         Total DFT energy =      -76.386326897498

                       DFT Final Molecular Orbital Analysis
                       ------------------------------------

 Vector    1  Occ=2.000000D+00  E=-1.963980D+01  Symmetry=a1

 Vector    2  Occ=2.000000D+00  E=-1.136965D+00  Symmetry=a1

 Vector    3  Occ=2.000000D+00  E=-6.210957D-01  Symmetry=b1

 Vector    4  Occ=2.000000D+00  E=-4.748788D-01  Symmetry=a1

 Vector    5  Occ=2.000000D+00  E=-3.974984D-01  Symmetry=b2

 Vector    6  Occ=0.000000D+00  E= 4.062347D-02  Symmetry=a1

 Vector    7  Occ=0.000000D+00  E= 1.092873D-01  Symmetry=b1

 Vector    8  Occ=0.000000D+00  E= 1.440902D-01  Symmetry=a1

 Vector    9  Occ=0.000000D+00  E= 1.470446D-01  Symmetry=b2

 Vector   10  Occ=0.000000D+00  E= 2.316448D-01  Symmetry=b1

 Vector   11  Occ=0.000000D+00  E= 2.664018D-01  Symmetry=a1

 Vector   12  Occ=0.000000D+00  E= 1.015203D+00  Symmetry=b1

 Vector   13  Occ=0.000000D+00  E= 1.106803D+00  Symmetry=a1

 Vector   14  Occ=0.000000D+00  E= 1.158601D+00  Symmetry=b1

 Vector   15  Occ=0.000000D+00  E= 1.171818D+00  Symmetry=b2

 Vector   16  Occ=0.000000D+00  E= 1.196617D+00  Symmetry=a1

 Vector   17  Occ=0.000000D+00  E= 1.285752D+00  Symmetry=a1

 Vector   18  Occ=0.000000D+00  E= 1.771166D+00  Symmetry=a1

 Vector   19  Occ=0.000000D+00  E= 1.785668D+00  Symmetry=a2

 Vector   20  Occ=0.000000D+00  E= 1.819231D+00  Symmetry=b2

 Vector   21  Occ=0.000000D+00  E= 2.339824D+00  Symmetry=a1

 Vector   22  Occ=0.000000D+00  E= 2.700989D+00  Symmetry=b1

 Vector   23  Occ=0.000000D+00  E= 3.693439D+00  Symmetry=a1

     Multipole analysis of the density
     ---------------------------------

     L   x y z        total         alpha         beta         nuclear
     -   - - -        -----         -----         ----         -------
     0   0 0 0     -0.000000     -5.000000     -5.000000     10.000000

     1   1 0 0      0.000000      0.000000      0.000000      0.000000
     1   0 1 0     -0.000000     -0.000000     -0.000000      0.000000
     1   0 0 1      0.910119      0.455060      0.455060      0.000000

     2   2 0 0     -3.240143     -3.664895     -3.664895      4.089646
     2   1 1 0     -0.000000     -0.000000     -0.000000      0.000000
     2   1 0 1      0.000000      0.000000      0.000000      0.000000
     2   0 2 0     -5.857298     -2.928649     -2.928649      0.000000
     2   0 1 1     -0.000000     -0.000000     -0.000000      0.000000

 Total times  cpu:        0.2s     wall:        0.2s
