============================== echo of input deck ==============================
echo

title m11-l_h2o
start m11-l_h2o

geometry units angstroms
 O     0.000000     0.000000     0.000000
 H     0.000000     0.000000     0.956914
 H     0.926363     0.000000    -0.239868
end

basis
 H library 6-31+G*
 O library 6-31+G*
end

dft
 iterations 50
 print intermediate energy info
 xc m11-l
 decomp
 grid lebedev 99 14
 direct
end
task dft
================================================================================

 Output coordinates in angstroms (scale by  1.889725989 to convert to a.u.)

  No.       Tag          Charge          X              Y              Z
 ---- ---------------- ---------- -------------- -------------- --------------
    1 O                    8.0000     0.00000000     0.00000000    -0.11714535
    2 H                    1.0000    -0.75670925     0.00000000     0.46858141
    3 H                    1.0000     0.75670925     0.00000000     0.46858141

         Total DFT energy =      -76.393008186008

                       DFT Final Molecular Orbital Analysis
                       ------------------------------------

 Vector    1  Occ=2.000000D+00  E=-1.939018D+01  Symmetry=a1

 Vector    2  Occ=2.000000D+00  E=-1.049531D+00  Symmetry=a1

 Vector    3  Occ=2.000000D+00  E=-5.129059D-01  Symmetry=b1

 Vector    4  Occ=2.000000D+00  E=-3.728339D-01  Symmetry=a1

 Vector    5  Occ=2.000000D+00  E=-2.890164D-01  Symmetry=b2

 Vector    6  Occ=0.000000D+00  E=-4.630922D-04  Symmetry=a1

 Vector    7  Occ=0.000000D+00  E= 5.283772D-02  Symmetry=b1

 Vector    8  Occ=0.000000D+00  E= 8.764059D-02  Symmetry=a1

 Vector    9  Occ=0.000000D+00  E= 1.008965D-01  Symmetry=b2

 Vector   10  Occ=0.000000D+00  E= 1.610852D-01  Symmetry=b1

 Vector   11  Occ=0.000000D+00  E= 1.927400D-01  Symmetry=a1

 Vector   12  Occ=0.000000D+00  E= 9.471235D-01  Symmetry=b1

 Vector   13  Occ=0.000000D+00  E= 1.035176D+00  Symmetry=a1

 Vector   14  Occ=0.000000D+00  E= 1.116353D+00  Symmetry=b1

 Vector   15  Occ=0.000000D+00  E= 1.121240D+00  Symmetry=b2

 Vector   16  Occ=0.000000D+00  E= 1.139253D+00  Symmetry=a1

 Vector   17  Occ=0.000000D+00  E= 1.210680D+00  Symmetry=a1

 Vector   18  Occ=0.000000D+00  E= 1.703912D+00  Symmetry=a1

 Vector   19  Occ=0.000000D+00  E= 1.718381D+00  Symmetry=a2

 Vector   20  Occ=0.000000D+00  E= 1.759132D+00  Symmetry=b2

 Vector   21  Occ=0.000000D+00  E= 2.294585D+00  Symmetry=a1

 Vector   22  Occ=0.000000D+00  E= 2.655444D+00  Symmetry=b1

 Vector   23  Occ=0.000000D+00  E= 3.772249D+00  Symmetry=a1

     Multipole analysis of the density
     ---------------------------------

     L   x y z        total         alpha         beta         nuclear
     -   - - -        -----         -----         ----         -------
     0   0 0 0     -0.000000     -5.000000     -5.000000     10.000000

     1   1 0 0      0.000000      0.000000      0.000000      0.000000
     1   0 1 0     -0.000000     -0.000000     -0.000000      0.000000
     1   0 0 1      0.880069      0.440035      0.440035      0.000000

     2   2 0 0     -3.086328     -3.587987     -3.587987      4.089646
     2   1 1 0      0.000000      0.000000      0.000000      0.000000
     2   1 0 1     -0.000000     -0.000000     -0.000000      0.000000
     2   0 2 0     -5.730101     -2.865050     -2.865050      0.000000
     2   0 1 1     -0.000000     -0.000000     -0.000000      0.000000

 Total times  cpu:        0.2s     wall:        0.3s
