============================== echo of input deck ==============================
echo
title m11_ch3
start m11_ch3

geometry units angstroms
C 0.000000 0.000000 0.000000
H 0.000000 1.078000 0.000000
H 0.933000 -0.539000 0.000000
H -0.933000 -0.539000 0.000000
end

basis
 H library 6-31+G*
 C library 6-31+G*
end

dft
 mult 2
 iterations 50
 print intermediate energy info
 xc m11
 decomp
 grid lebedev 99 14
 direct
end
task dft
================================================================================

 Output coordinates in angstroms (scale by  1.889725989 to convert to a.u.)

  No.       Tag          Charge          X              Y              Z
 ---- ---------------- ---------- -------------- -------------- --------------
    1 C                    6.0000     0.00000000     0.00000000     0.00000000
    2 H                    1.0000     0.76202621     0.76202621     0.00000000
    3 H                    1.0000     0.27892095    -1.04094716     0.00000000
    4 H                    1.0000    -1.04094716     0.27892095     0.00000000

         Total DFT energy =      -39.801958932957

                    DFT Final Alpha Molecular Orbital Analysis
                    ------------------------------------------

 Vector    1  Occ=1.000000D+00  E=-1.045634D+01  Symmetry=a1'

 Vector    2  Occ=1.000000D+00  E=-8.257239D-01  Symmetry=a1'

 Vector    3  Occ=1.000000D+00  E=-5.408532D-01  Symmetry=e'

 Vector    4  Occ=1.000000D+00  E=-5.408532D-01  Symmetry=e'

 Vector    5  Occ=1.000000D+00  E=-3.302482D-01  Symmetry=a2"

 Vector    6  Occ=0.000000D+00  E= 6.835023D-02  Symmetry=a1'

 Vector    7  Occ=0.000000D+00  E= 7.257138D-02  Symmetry=e'

 Vector    8  Occ=0.000000D+00  E= 7.257138D-02  Symmetry=e'

 Vector    9  Occ=0.000000D+00  E= 1.071341D-01  Symmetry=a2"

 Vector   10  Occ=0.000000D+00  E= 2.799813D-01  Symmetry=a1'

 Vector   11  Occ=0.000000D+00  E= 2.900793D-01  Symmetry=e'

 Vector   12  Occ=0.000000D+00  E= 2.900793D-01  Symmetry=e'

 Vector   13  Occ=0.000000D+00  E= 7.249416D-01  Symmetry=e'

 Vector   14  Occ=0.000000D+00  E= 7.249416D-01  Symmetry=e'

 Vector   15  Occ=0.000000D+00  E= 7.389999D-01  Symmetry=a2"

 Vector   16  Occ=0.000000D+00  E= 8.966344D-01  Symmetry=a1'

 Vector   17  Occ=0.000000D+00  E= 1.107253D+00  Symmetry=e'

 Vector   18  Occ=0.000000D+00  E= 1.107253D+00  Symmetry=e'

 Vector   19  Occ=0.000000D+00  E= 1.132914D+00  Symmetry=a1'

 Vector   20  Occ=0.000000D+00  E= 1.764077D+00  Symmetry=e"

 Vector   21  Occ=0.000000D+00  E= 1.764077D+00  Symmetry=e"

 Vector   22  Occ=0.000000D+00  E= 2.125186D+00  Symmetry=a1'

 Vector   23  Occ=0.000000D+00  E= 2.373230D+00  Symmetry=e'

 Vector   24  Occ=0.000000D+00  E= 2.373230D+00  Symmetry=e'

 Vector   25  Occ=0.000000D+00  E= 4.152279D+00  Symmetry=a1'

 Vector    1  Occ=1.000000D+00  E=-1.043986D+01  Symmetry=a1'

 Vector    2  Occ=1.000000D+00  E=-7.752826D-01  Symmetry=a1'

 Vector    3  Occ=1.000000D+00  E=-5.217757D-01  Symmetry=e'

 Vector    4  Occ=1.000000D+00  E=-5.217757D-01  Symmetry=e'

 Vector    5  Occ=0.000000D+00  E=-1.738420D-02  Symmetry=a2"

 Vector    6  Occ=0.000000D+00  E= 3.696894D-02  Symmetry=a1'

 Vector    7  Occ=0.000000D+00  E= 5.319734D-02  Symmetry=e'

 Vector    8  Occ=0.000000D+00  E= 5.319734D-02  Symmetry=e'

 Vector    9  Occ=0.000000D+00  E= 9.290967D-02  Symmetry=a2"

 Vector   10  Occ=0.000000D+00  E= 2.783642D-01  Symmetry=a1'

 Vector   11  Occ=0.000000D+00  E= 2.828261D-01  Symmetry=e'

 Vector   12  Occ=0.000000D+00  E= 2.828261D-01  Symmetry=e'

 Vector   13  Occ=0.000000D+00  E= 7.203386D-01  Symmetry=e'

 Vector   14  Occ=0.000000D+00  E= 7.203386D-01  Symmetry=e'

 Vector   15  Occ=0.000000D+00  E= 8.218184D-01  Symmetry=a2"

 Vector   16  Occ=0.000000D+00  E= 9.204526D-01  Symmetry=a1'

 Vector   17  Occ=0.000000D+00  E= 1.047159D+00  Symmetry=e'

 Vector   18  Occ=0.000000D+00  E= 1.047159D+00  Symmetry=e'

 Vector   19  Occ=0.000000D+00  E= 1.098650D+00  Symmetry=a1'

 Vector   20  Occ=0.000000D+00  E= 1.791296D+00  Symmetry=e"

 Vector   21  Occ=0.000000D+00  E= 1.791296D+00  Symmetry=e"

 Vector   22  Occ=0.000000D+00  E= 2.188674D+00  Symmetry=a1'

 Vector   23  Occ=0.000000D+00  E= 2.280400D+00  Symmetry=e'

 Vector   24  Occ=0.000000D+00  E= 2.280400D+00  Symmetry=e'

 Vector   25  Occ=0.000000D+00  E= 4.146970D+00  Symmetry=a1'

     Multipole analysis of the density
     ---------------------------------

     L   x y z        total         alpha         beta         nuclear
     -   - - -        -----         -----         ----         -------
     0   0 0 0     -0.000000     -5.000000     -4.000000      9.000000

     1   1 0 0     -0.000000     -0.000000     -0.000000      0.000000
     1   0 1 0     -0.000000      0.000000     -0.000000      0.000000
     1   0 0 1     -0.000000     -0.000000     -0.000000      0.000000

     2   2 0 0     -5.345419     -6.129465     -5.436933      6.220979
     2   1 1 0     -0.000000      0.000000      0.000000     -0.000000
     2   1 0 1     -0.000000     -0.000000      0.000000      0.000000
     2   0 2 0     -5.345419     -6.129465     -5.436933      6.220979
     2   0 1 1      0.000000      0.000000     -0.000000      0.000000

 Total times  cpu:        0.6s     wall:        0.6s
