============================== echo of input deck ==============================
echo

start m11_h2o
title m11_h2o

geometry units angstroms
 O     0.000000     0.000000     0.000000
 H     0.000000     0.000000     0.956914
 H     0.926363     0.000000    -0.239868
end

basis
 H library 6-31+G*
 O library 6-31+G*
end

dft
 iterations 50
 print intermediate energy info
 xc m11
 decomp
 grid lebedev 99 14
 direct
end
task dft
================================================================================

 Output coordinates in angstroms (scale by  1.889725989 to convert to a.u.)

  No.       Tag          Charge          X              Y              Z
 ---- ---------------- ---------- -------------- -------------- --------------
    1 O                    8.0000     0.00000000     0.00000000    -0.11714535
    2 H                    1.0000    -0.75670925     0.00000000     0.46858141
    3 H                    1.0000     0.75670925     0.00000000     0.46858141

         Total DFT energy =      -76.393373364583

                       DFT Final Molecular Orbital Analysis
                       ------------------------------------

 Vector    1  Occ=2.000000D+00  E=-1.948569D+01  Symmetry=a1

 Vector    2  Occ=2.000000D+00  E=-1.157178D+00  Symmetry=a1

 Vector    3  Occ=2.000000D+00  E=-6.652008D-01  Symmetry=b1

 Vector    4  Occ=2.000000D+00  E=-5.165742D-01  Symmetry=a1

 Vector    5  Occ=2.000000D+00  E=-4.408699D-01  Symmetry=b2

 Vector    6  Occ=0.000000D+00  E= 1.044346D-01  Symmetry=a1

 Vector    7  Occ=0.000000D+00  E= 1.616291D-01  Symmetry=b1

 Vector    8  Occ=0.000000D+00  E= 2.043938D-01  Symmetry=a1

 Vector    9  Occ=0.000000D+00  E= 2.126752D-01  Symmetry=b2

 Vector   10  Occ=0.000000D+00  E= 2.814870D-01  Symmetry=b1

 Vector   11  Occ=0.000000D+00  E= 3.140877D-01  Symmetry=a1

 Vector   12  Occ=0.000000D+00  E= 1.063283D+00  Symmetry=b1

 Vector   13  Occ=0.000000D+00  E= 1.146130D+00  Symmetry=a1

 Vector   14  Occ=0.000000D+00  E= 1.175712D+00  Symmetry=b1

 Vector   15  Occ=0.000000D+00  E= 1.177104D+00  Symmetry=b2

 Vector   16  Occ=0.000000D+00  E= 1.221258D+00  Symmetry=a1

 Vector   17  Occ=0.000000D+00  E= 1.310295D+00  Symmetry=a1

 Vector   18  Occ=0.000000D+00  E= 1.815215D+00  Symmetry=a1

 Vector   19  Occ=0.000000D+00  E= 1.827464D+00  Symmetry=a2

 Vector   20  Occ=0.000000D+00  E= 1.865932D+00  Symmetry=b2

 Vector   21  Occ=0.000000D+00  E= 2.389879D+00  Symmetry=a1

 Vector   22  Occ=0.000000D+00  E= 2.749913D+00  Symmetry=b1

 Vector   23  Occ=0.000000D+00  E= 3.734117D+00  Symmetry=a1

     Multipole analysis of the density
     ---------------------------------

     L   x y z        total         alpha         beta         nuclear
     -   - - -        -----         -----         ----         -------
     0   0 0 0     -0.000000     -5.000000     -5.000000     10.000000

     1   1 0 0     -0.000000     -0.000000     -0.000000      0.000000
     1   0 1 0      0.000000      0.000000      0.000000      0.000000
     1   0 0 1      0.941067      0.470533      0.470533      0.000000

     2   2 0 0     -3.219929     -3.654788     -3.654788      4.089646
     2   1 1 0     -0.000000     -0.000000     -0.000000      0.000000
     2   1 0 1     -0.000000     -0.000000     -0.000000      0.000000
     2   0 2 0     -5.861992     -2.930996     -2.930996      0.000000
     2   0 1 1      0.000000      0.000000      0.000000      0.000000

 Total times  cpu:        0.3s     wall:        0.3s
