============================== echo of input deck ==============================
echo

title "N atom UHF and ROHF"

start n_atom

geometry
N  0. 0. 0.
symmetry oh
end

basis "ao basis" spherical
  N library aug-cc-pV6Z
end

dft
 xc hfexch
 direct
 mult 4
 vectors input atomic output dft.mos
end

set quickguess t
task dft

scf
 quartet
 rohf
 direct
 vectors input dft.mos output rohf.mos
end

task scf
================================================================================

 Output coordinates in angstroms (scale by  1.889725989 to convert to a.u.)

  No.       Tag          Charge          X              Y              Z
 ---- ---------------- ---------- -------------- -------------- --------------
    1 N                    7.0000     0.00000000     0.00000000     0.00000000

         Total DFT energy =      -54.404537710698

                    DFT Final Alpha Molecular Orbital Analysis
                    ------------------------------------------

 Vector    1  Occ=1.000000D+00  E=-1.567068D+01  Symmetry=a1g

 Vector    2  Occ=1.000000D+00  E=-1.162971D+00  Symmetry=a1g

 Vector    3  Occ=1.000000D+00  E=-5.709266D-01  Symmetry=t1u

 Vector    4  Occ=1.000000D+00  E=-5.709266D-01  Symmetry=t1u

 Vector    5  Occ=1.000000D+00  E=-5.709266D-01  Symmetry=t1u

 Vector    6  Occ=0.000000D+00  E= 7.243399D-02  Symmetry=t1u

 Vector    7  Occ=0.000000D+00  E= 7.243399D-02  Symmetry=t1u

 Vector    8  Occ=0.000000D+00  E= 7.243399D-02  Symmetry=t1u

 Vector    9  Occ=0.000000D+00  E= 8.106155D-02  Symmetry=a1g

 Vector   10  Occ=0.000000D+00  E= 2.644200D-01  Symmetry=t2g

 Vector   11  Occ=0.000000D+00  E= 2.644200D-01  Symmetry=eg

 Vector   12  Occ=0.000000D+00  E= 2.644200D-01  Symmetry=t2g

 Vector   13  Occ=0.000000D+00  E= 2.644200D-01  Symmetry=eg

 Vector   14  Occ=0.000000D+00  E= 2.644200D-01  Symmetry=t2g

 Vector   15  Occ=0.000000D+00  E= 3.067549D-01  Symmetry=t1u

 Vector   16  Occ=0.000000D+00  E= 3.067549D-01  Symmetry=t1u

 Vector   17  Occ=0.000000D+00  E= 3.067549D-01  Symmetry=t1u

 Vector   18  Occ=0.000000D+00  E= 4.435292D-01  Symmetry=a1g

 Vector   19  Occ=0.000000D+00  E= 6.156973D-01  Symmetry=t1u

 Vector    1  Occ=1.000000D+00  E=-1.558097D+01  Symmetry=a1g

 Vector    2  Occ=1.000000D+00  E=-7.257930D-01  Symmetry=a1g

 Vector    3  Occ=0.000000D+00  E= 5.617335D-02  Symmetry=t1u

 Vector    4  Occ=0.000000D+00  E= 5.617335D-02  Symmetry=t1u

 Vector    5  Occ=0.000000D+00  E= 5.617335D-02  Symmetry=t1u

 Vector    6  Occ=0.000000D+00  E= 9.138334D-02  Symmetry=a1g

 Vector    7  Occ=0.000000D+00  E= 1.440734D-01  Symmetry=t1u

 Vector    8  Occ=0.000000D+00  E= 1.440734D-01  Symmetry=t1u

 Vector    9  Occ=0.000000D+00  E= 1.440734D-01  Symmetry=t1u

 Vector   10  Occ=0.000000D+00  E= 2.715343D-01  Symmetry=t2g

 Vector   11  Occ=0.000000D+00  E= 2.715343D-01  Symmetry=t2g

 Vector   12  Occ=0.000000D+00  E= 2.715343D-01  Symmetry=t2g

 Vector   13  Occ=0.000000D+00  E= 2.715343D-01  Symmetry=eg

 Vector   14  Occ=0.000000D+00  E= 2.715343D-01  Symmetry=eg

 Vector   15  Occ=0.000000D+00  E= 3.936092D-01  Symmetry=t1u

 Vector   16  Occ=0.000000D+00  E= 3.936092D-01  Symmetry=t1u

 Vector   17  Occ=0.000000D+00  E= 3.936092D-01  Symmetry=t1u

 Vector   18  Occ=0.000000D+00  E= 4.872195D-01  Symmetry=a1g

 Vector   19  Occ=0.000000D+00  E= 6.204895D-01  Symmetry=t2u

         Total SCF energy =    -54.400923662896

 Vector    2  Occ=2.000000D+00  E=-9.453248D-01  Symmetry=a1g

 Vector    3  Occ=1.000000D+00  E=-1.802947D-01  Symmetry=t1u

 Vector    4  Occ=1.000000D+00  E=-1.802947D-01  Symmetry=t1u

 Vector    5  Occ=1.000000D+00  E=-1.802947D-01  Symmetry=t1u

 Vector    6  Occ=0.000000D+00  E= 7.468916D-02  Symmetry=t1u

 Vector    7  Occ=0.000000D+00  E= 7.468916D-02  Symmetry=t1u

 Vector    8  Occ=0.000000D+00  E= 7.468916D-02  Symmetry=t1u

 Vector    9  Occ=0.000000D+00  E= 8.593781D-02  Symmetry=a1g

 Vector   10  Occ=0.000000D+00  E= 2.681581D-01  Symmetry=eg

 Vector   11  Occ=0.000000D+00  E= 2.681581D-01  Symmetry=t2g

 Vector   12  Occ=0.000000D+00  E= 2.681581D-01  Symmetry=t2g

 Vector   13  Occ=0.000000D+00  E= 2.681581D-01  Symmetry=eg

 Vector   14  Occ=0.000000D+00  E= 2.681581D-01  Symmetry=t2g

 Vector   15  Occ=0.000000D+00  E= 3.232078D-01  Symmetry=t1u

 Vector   16  Occ=0.000000D+00  E= 3.232078D-01  Symmetry=t1u

 Vector   17  Occ=0.000000D+00  E= 3.232078D-01  Symmetry=t1u

 Vector   18  Occ=0.000000D+00  E= 4.639982D-01  Symmetry=a1g

 Vector   19  Occ=0.000000D+00  E= 6.181162D-01  Symmetry=t2u

       Multipole analysis of the density wrt the origin
       ------------------------------------------------

     L   x y z        total         open         nuclear
     -   - - -        -----         ----         -------
     0   0 0 0     -0.000000     -3.000000      7.000000

     1   1 0 0     -0.000000     -0.000000      0.000000
     1   0 1 0     -0.000000     -0.000000      0.000000
     1   0 0 1      0.000000      0.000000      0.000000

     2   2 0 0     -4.027567     -2.547736      0.000000
     2   1 1 0      0.000000      0.000000      0.000000
     2   1 0 1     -0.000000     -0.000000      0.000000
     2   0 2 0     -4.027567     -2.547736      0.000000
     2   0 1 1      0.000000      0.000000      0.000000

 Total times  cpu:      106.9s     wall:      109.5s
