============================== echo of input deck ==============================
#
# These are the comparison numbers directly from Stefan Grimme:
#
#here it is (noFC, spherical basis, for total energies add col_1+0.27*col_2):
#      B2-LYP                unscaled RI-PT2
# Ne  -128.8393325785       -0.3656412777

echo

start Ne_b2plyp_cc-vqz

memory total 1000 mb

geometry
 Ne     0.0 0.0 0.0
end

basis "ao basis" spherical
  * library cc-pvqz
end

mp2
  freeze 0
  scratchdisk 4096
end

dft
  xc HFexch 0.53 becke88 0.47 lyp 0.73 mp2 0.27
  dftmp2 semidirect
  convergence energy 1e-8
  iterations 100
end

task dft energy

dft
  xc HFexch 0.53 becke88 0.47 lyp 0.73 mp2 0.27
  dftmp2 direct
  direct
  convergence energy 1e-8
  iterations 100
end

task dft energy

# This won't reproduce Turbomole exactly because it's not the same basis
# but it should come darn close to the complete DFT result
basis "cc-pVQZ-RI" spherical
#BASIS SET: (8s,7p,6d,5f,3g,1h)
Ne    S
    537.49100000             1.0000000
Ne    S
    116.22800000             1.0000000
Ne    S
     34.986200000            1.0000000
Ne    S
      8.0017500000           1.0000000
Ne    S
      4.4437800000           1.0000000
Ne    S
      2.4229600000           1.0000000
Ne    S
      1.1501200000           1.0000000
Ne    S
      0.47590500000          1.0000000
Ne    P
     99.166000000            1.0000000
Ne    P
     28.822000000            1.0000000
Ne    P
      8.4094200000           1.0000000
Ne    P
      5.5649600000           1.0000000
Ne    P
      2.6574400000           1.0000000
Ne    P
      1.3281700000           1.0000000
Ne    P
      0.73485000000          1.0000000
Ne    D
     28.745200000            1.0000000
Ne    D
      8.9240100000           1.0000000
Ne    D
      5.9214600000           1.0000000
Ne    D
      2.7948000000           1.0000000
Ne    D
      1.6289400000           1.0000000
Ne    D
      0.59989500000          1.0000000
Ne    F
     13.309000000            1.0000000
Ne    F
      6.5987600000           1.0000000
Ne    F
      3.0465600000           1.0000000
Ne    F
      2.0938000000           1.0000000
Ne    F
      1.0360700000           1.0000000
Ne    G
      8.2858100000           1.0000000
Ne    G
      4.2402700000           1.0000000
Ne    G
      2.2925000000           1.0000000
Ne    H
      4.4923100000           1.0000000
end

set "ri-mp2 basis" "cc-pVQZ-RI"

dft
  xc HFexch 0.53 becke88 0.47 lyp 0.73 mp2 0.27
  dftmp2 ri
  convergence energy 1e-8
  iterations 100
end

task dft energy
================================================================================

 Output coordinates in angstroms (scale by  1.889725989 to convert to a.u.)

  No.       Tag          Charge          X              Y              Z
 ---- ---------------- ---------- -------------- -------------- --------------
    1 Ne                  10.0000     0.00000000     0.00000000     0.00000000

         Total DFT energy =     -128.839334231108
         Total DFT energy =     -128.839334231109

 Vector   31  Occ=0.000000D+00  E= 1.451524D+01

 Vector   32  Occ=0.000000D+00  E= 1.451524D+01

 Vector   33  Occ=0.000000D+00  E= 1.451524D+01

 Vector   34  Occ=0.000000D+00  E= 1.451524D+01

 Vector   35  Occ=0.000000D+00  E= 1.451524D+01

 Vector   36  Occ=0.000000D+00  E= 1.451524D+01

 Vector   37  Occ=0.000000D+00  E= 1.451524D+01

 Vector   38  Occ=0.000000D+00  E= 1.451524D+01

 Vector   39  Occ=0.000000D+00  E= 1.451524D+01

 Vector   40  Occ=0.000000D+00  E= 1.526132D+01

 Vector   41  Occ=0.000000D+00  E= 1.526132D+01

 Vector   42  Occ=0.000000D+00  E= 1.526132D+01

 Vector   43  Occ=0.000000D+00  E= 1.931636D+01

 Vector   44  Occ=0.000000D+00  E= 1.931636D+01

 Vector   45  Occ=0.000000D+00  E= 1.931636D+01

 Vector   46  Occ=0.000000D+00  E= 1.931636D+01

 Vector   47  Occ=0.000000D+00  E= 1.931636D+01

 Vector   48  Occ=0.000000D+00  E= 1.931636D+01

 Vector   49  Occ=0.000000D+00  E= 1.931636D+01

 Vector   50  Occ=0.000000D+00  E= 2.043466D+01

 Vector   51  Occ=0.000000D+00  E= 2.043466D+01

 Vector   52  Occ=0.000000D+00  E= 2.043466D+01

 Vector   53  Occ=0.000000D+00  E= 2.043466D+01

 Vector   54  Occ=0.000000D+00  E= 2.043466D+01

 Vector   55  Occ=0.000000D+00  E= 6.539954D+01

         Total DFT energy =     -128.839334231109

                       DFT Final Molecular Orbital Analysis
                       ------------------------------------

 Vector    1  Occ=2.000000D+00  E=-3.171835D+01

 Vector    2  Occ=2.000000D+00  E=-1.650991D+00

 Vector    3  Occ=2.000000D+00  E=-6.854165D-01

 Vector    4  Occ=2.000000D+00  E=-6.854165D-01

 Vector    5  Occ=2.000000D+00  E=-6.854165D-01

 Vector    6  Occ=0.000000D+00  E= 6.913953D-01

 Vector    7  Occ=0.000000D+00  E= 6.913953D-01

 Vector    8  Occ=0.000000D+00  E= 6.913953D-01

 Vector    9  Occ=0.000000D+00  E= 7.987500D-01

 Vector   10  Occ=0.000000D+00  E= 1.831683D+00

 Vector   11  Occ=0.000000D+00  E= 1.831683D+00

 Vector   12  Occ=0.000000D+00  E= 1.831683D+00

 Vector   13  Occ=0.000000D+00  E= 1.831683D+00

 Vector   14  Occ=0.000000D+00  E= 1.831683D+00

 Vector   15  Occ=0.000000D+00  E= 3.657264D+00

 Vector   16  Occ=0.000000D+00  E= 3.657264D+00

 Vector   17  Occ=0.000000D+00  E= 3.657264D+00

 Vector   18  Occ=0.000000D+00  E= 5.492217D+00

 Vector   19  Occ=0.000000D+00  E= 5.635011D+00

 Vector   20  Occ=0.000000D+00  E= 5.635011D+00

 Vector   21  Occ=0.000000D+00  E= 5.635011D+00

 Vector   22  Occ=0.000000D+00  E= 5.635011D+00

 Vector   23  Occ=0.000000D+00  E= 5.635011D+00

 Vector   24  Occ=0.000000D+00  E= 5.635011D+00

 Vector   25  Occ=0.000000D+00  E= 5.635011D+00

 Vector   26  Occ=0.000000D+00  E= 6.451307D+00

 Vector   27  Occ=0.000000D+00  E= 6.451307D+00

 Vector   28  Occ=0.000000D+00  E= 6.451307D+00

 Vector   29  Occ=0.000000D+00  E= 6.451307D+00

 Vector   30  Occ=0.000000D+00  E= 6.451307D+00

 Vector   31  Occ=0.000000D+00  E= 1.451524D+01

 Vector   32  Occ=0.000000D+00  E= 1.451524D+01

 Vector   33  Occ=0.000000D+00  E= 1.451524D+01

 Vector   34  Occ=0.000000D+00  E= 1.451524D+01

 Vector   35  Occ=0.000000D+00  E= 1.451524D+01

 Vector   36  Occ=0.000000D+00  E= 1.451524D+01

 Vector   37  Occ=0.000000D+00  E= 1.451524D+01

 Vector   38  Occ=0.000000D+00  E= 1.451524D+01

 Vector   39  Occ=0.000000D+00  E= 1.451524D+01

 Vector   40  Occ=0.000000D+00  E= 1.526132D+01

 Vector   41  Occ=0.000000D+00  E= 1.526132D+01

 Vector   42  Occ=0.000000D+00  E= 1.526132D+01

 Vector   43  Occ=0.000000D+00  E= 1.931636D+01

 Vector   44  Occ=0.000000D+00  E= 1.931636D+01

 Vector   45  Occ=0.000000D+00  E= 1.931636D+01

 Vector   46  Occ=0.000000D+00  E= 1.931636D+01

 Vector   47  Occ=0.000000D+00  E= 1.931636D+01

 Vector   48  Occ=0.000000D+00  E= 1.931636D+01

 Vector   49  Occ=0.000000D+00  E= 1.931636D+01

 Vector   50  Occ=0.000000D+00  E= 2.043466D+01

 Vector   51  Occ=0.000000D+00  E= 2.043466D+01

 Vector   52  Occ=0.000000D+00  E= 2.043466D+01

 Vector   53  Occ=0.000000D+00  E= 2.043466D+01

 Vector   54  Occ=0.000000D+00  E= 2.043466D+01

 Vector   55  Occ=0.000000D+00  E= 6.539954D+01

 Total times  cpu:        1.0s     wall:        1.1s
