============================== echo of input deck ==============================
echo
start o2_bnl

geometry units angstrom
O        0.0000000000      0.0000000000      0.60066850000
O        0.0000000000      0.0000000000     -0.60066850000
symmetry c1
end

basis spherical
 * library "cc-pVTZ"
end

BASIS "cd basis" print
O    S
          9.57843253E+02         0.56249624
          2.81967425E+02         1.49108985
          9.01998320E+01         3.86547733
O    S
          3.11382990E+01         3.60577725
O    S
          1.14937320E+01         0.23005858
O    S
          4.48404900E+00        -0.05015769
O    S
          1.82350400E+00         1.05070463
O    S
          7.60903000E-01         0.58565488
O    S
          3.20292000E-01         0.07499129
O    P
          6.14708863E-01        -0.08557844
O    P
          1.47530127E+00         0.04179996
O    P
          3.69562968E+00        -0.05855108
O    D
          7.65267200E+00         0.09106873
O    D
          2.21786800E+00         0.11163134
O    D
          6.82337000E-01         0.04600666
O    F
          2.19178082E+00         1.00000000
END

set int:cando_txs f

dft
 direct
 xc xbnl07 0.90 lyp 1.00 hfexch 1.00
 cam 0.5 cam_alpha 0.0 cam_beta 1.0
 odft
 mult 3
end
task dft energy

driver
 clear
 maxiter 100
end
task dft optimize
================================================================================

         Total DFT energy =     -147.994422470925
         Total DFT energy =   -147.994422470925
@ Step       Energy      Delta E   Gmax     Grms     Xrms     Xmax   Walltime
@ ---- ---------------- -------- -------- -------- -------- -------- --------
@    0    -147.99442247  0.0D+00  0.00053  0.00053  0.00000  0.00000      2.8
         Total DFT energy =     -147.994422444452
         Total DFT energy =   -147.994422444452
@    1    -147.99442244  2.6D-08  0.00059  0.00059  0.00034  0.00059      4.5
         Total DFT energy =     -147.994422624986

                    DFT Final Alpha Molecular Orbital Analysis
                    ------------------------------------------

 Vector    1  Occ=1.000000D+00  E=-1.883218D+01

 Vector   41  Occ=0.000000D+00  E= 5.049841D+00

 Vector   42  Occ=0.000000D+00  E= 5.297779D+00

 Vector   43  Occ=0.000000D+00  E= 5.297779D+00

 Vector   44  Occ=0.000000D+00  E= 5.837604D+00

 Vector   45  Occ=0.000000D+00  E= 5.837604D+00

 Vector   46  Occ=0.000000D+00  E= 5.906391D+00

 Vector   47  Occ=0.000000D+00  E= 6.163514D+00

 Vector   48  Occ=0.000000D+00  E= 6.163515D+00

 Vector   49  Occ=0.000000D+00  E= 6.384372D+00

 Vector   50  Occ=0.000000D+00  E= 6.384372D+00

 Vector   51  Occ=0.000000D+00  E= 6.426810D+00

 Vector   52  Occ=0.000000D+00  E= 6.426810D+00

 Vector   53  Occ=0.000000D+00  E= 6.531689D+00

 Vector   54  Occ=0.000000D+00  E= 6.531689D+00

 Vector   55  Occ=0.000000D+00  E= 6.804034D+00

 Vector   56  Occ=0.000000D+00  E= 7.127962D+00

 Vector   57  Occ=0.000000D+00  E= 7.340726D+00

 Vector   58  Occ=0.000000D+00  E= 7.340726D+00

 Vector   59  Occ=0.000000D+00  E= 7.706026D+00

 Vector   60  Occ=0.000000D+00  E= 1.243716D+01

 Vector    1  Occ=1.000000D+00  E=-1.880462D+01

 Vector    2  Occ=1.000000D+00  E=-1.880438D+01

 Vector    3  Occ=1.000000D+00  E=-1.408560D+00

 Vector    4  Occ=1.000000D+00  E=-8.774051D-01

 Vector    5  Occ=1.000000D+00  E=-6.439326D-01

 Vector    6  Occ=1.000000D+00  E=-6.026377D-01

 Vector    7  Occ=1.000000D+00  E=-6.026377D-01

 Vector    8  Occ=0.000000D+00  E= 1.938600D-02

 Vector    9  Occ=0.000000D+00  E= 1.938600D-02

 Vector   10  Occ=0.000000D+00  E= 3.571770D-01

 Vector   11  Occ=0.000000D+00  E= 6.516534D-01

 Vector   12  Occ=0.000000D+00  E= 6.516534D-01

 Vector   13  Occ=0.000000D+00  E= 6.567657D-01

 Vector   14  Occ=0.000000D+00  E= 6.765303D-01

 Vector   15  Occ=0.000000D+00  E= 7.765038D-01

 Vector   16  Occ=0.000000D+00  E= 7.765038D-01

 Vector   17  Occ=0.000000D+00  E= 8.225160D-01

 Vector   18  Occ=0.000000D+00  E= 1.373551D+00

 Vector   19  Occ=0.000000D+00  E= 1.386822D+00

 Vector   20  Occ=0.000000D+00  E= 1.386822D+00

 Vector   21  Occ=0.000000D+00  E= 1.477345D+00

 Vector   22  Occ=0.000000D+00  E= 1.477345D+00

 Vector   23  Occ=0.000000D+00  E= 1.821453D+00

 Vector   24  Occ=0.000000D+00  E= 1.821453D+00

 Vector   25  Occ=0.000000D+00  E= 2.281706D+00

 Vector   26  Occ=0.000000D+00  E= 2.299938D+00

 Vector   27  Occ=0.000000D+00  E= 2.354284D+00

 Vector   28  Occ=0.000000D+00  E= 2.354284D+00

 Vector   29  Occ=0.000000D+00  E= 3.603510D+00

 Vector   30  Occ=0.000000D+00  E= 3.603510D+00

 Vector   31  Occ=0.000000D+00  E= 3.740167D+00

 Vector   32  Occ=0.000000D+00  E= 3.893067D+00

 Vector   33  Occ=0.000000D+00  E= 3.893067D+00

 Vector   34  Occ=0.000000D+00  E= 4.756993D+00

 Vector   35  Occ=0.000000D+00  E= 4.756993D+00

 Vector   36  Occ=0.000000D+00  E= 4.825011D+00

 Vector   37  Occ=0.000000D+00  E= 4.825011D+00

 Vector   38  Occ=0.000000D+00  E= 4.896503D+00

 Vector   39  Occ=0.000000D+00  E= 5.062511D+00

 Vector   40  Occ=0.000000D+00  E= 5.109636D+00

 Vector   41  Occ=0.000000D+00  E= 5.109636D+00

 Vector   42  Occ=0.000000D+00  E= 5.360985D+00

 Vector   43  Occ=0.000000D+00  E= 5.360985D+00

 Vector   44  Occ=0.000000D+00  E= 5.889242D+00

 Vector   45  Occ=0.000000D+00  E= 5.889242D+00

 Vector   46  Occ=0.000000D+00  E= 5.946782D+00

 Vector   47  Occ=0.000000D+00  E= 6.251058D+00

 Vector   48  Occ=0.000000D+00  E= 6.251058D+00

 Vector   49  Occ=0.000000D+00  E= 6.466893D+00

 Vector   50  Occ=0.000000D+00  E= 6.466893D+00

 Vector   51  Occ=0.000000D+00  E= 6.483122D+00

 Vector   52  Occ=0.000000D+00  E= 6.483122D+00

 Vector   53  Occ=0.000000D+00  E= 6.586997D+00

 Vector   54  Occ=0.000000D+00  E= 6.586997D+00

 Vector   55  Occ=0.000000D+00  E= 6.842452D+00

 Vector   56  Occ=0.000000D+00  E= 7.167091D+00

 Vector   57  Occ=0.000000D+00  E= 7.378325D+00

 Vector   58  Occ=0.000000D+00  E= 7.378325D+00

 Vector   59  Occ=0.000000D+00  E= 7.751014D+00

 Vector   60  Occ=0.000000D+00  E= 1.247844D+01

     Multipole analysis of the density
     ---------------------------------

     L   x y z        total         alpha         beta         nuclear
     -   - - -        -----         -----         ----         -------
     0   0 0 0     -0.000000     -9.000000     -7.000000     16.000000

     1   1 0 0     -0.000000     -0.000000      0.000000      0.000000
     1   0 1 0      0.000000      0.000000     -0.000000      0.000000
     1   0 0 1     -0.000002     -0.000000     -0.000001      0.000000

     2   2 0 0     -7.611441     -4.435502     -3.175939      0.000000
     2   1 1 0      0.000000      0.000000     -0.000000      0.000000
     2   1 0 1      0.000000      0.000000      0.000000      0.000000
     2   0 2 0     -7.611441     -4.435502     -3.175939      0.000000
     2   0 1 1     -0.000000     -0.000000     -0.000000      0.000000

         Total DFT energy =   -147.994422624986
@    2    -147.99442262 -1.8D-07  0.00003  0.00003  0.00018  0.00031      6.2
@    2    -147.99442262 -1.8D-07  0.00003  0.00003  0.00018  0.00031      6.2

 Output coordinates in angstroms (scale by  1.889725989 to convert to a.u.)

  No.       Tag          Charge          X              Y              Z
 ---- ---------------- ---------- -------------- -------------- --------------
    1 O                    8.0000     0.00000000     0.00000000     0.60081632
    2 O                    8.0000     0.00000000     0.00000000    -0.60081632

 Total times  cpu:        6.1s     wall:        6.2s
