============================== echo of input deck ==============================
echo
start

# Non-physical test of 3-layer ONIOM gradients

# Gradients for CF2H2 using SCF 6-31g*/3-21g/sto-3g SCF for the
# three levels of theory, and CF2H2/CFH3/CH4 for the three systems

# The test run under Linux had 6 dp agreement between the numerical
# and analytic derivatives.

driver; clear; end

geometry noautosym
  C -0.4    -0.0     0.0
  H -1.1    -0.9     0.0
  H -1.1     0.9     0.0
  F  0.3     0.0    -1.1
  F  0.3     0.0     1.1
end

basis sto-3g
  C library sto-3g
  H library sto-3g
  F library sto-3g
end

basis 3-21g
  C library 3-21g
  H library 3-21g
  F library 3-21g
end

basis 6-31g*
  C library 6-31g*
  H library 6-31g*
  F library 6-31g*
end

scf; print low geometry; thresh 1e-8; end

oniom
  high   scf basis 6-31g*
  medium scf basis 3-21g
  low    scf basis sto-3g
  model 3  1 4 0.8  1 5 0.8
  inter 4  1 5 0.8
end

task oniom gradient

set tng:fivept t

scf; print none; end

task oniom gradient numerical

================================================================================

         Total SCF energy =   -234.612326325658
         Total SCF energy =    -39.717479865280
         Total SCF energy =    -40.188229711141
         Total SCF energy =   -137.155222632619
         Total SCF energy =   -138.267828959958
         Total SCF energy =    -39.970079514515

 Output coordinates in angstroms (scale by  1.889725989 to convert to a.u.)

  No.       Tag          Charge          X              Y              Z
 ---- ---------------- ---------- -------------- -------------- --------------
    1 C                    6.0000    -0.43079026     0.00039703    -0.00069215
    2 H                    1.0000    -1.13119487    -0.90031716    -0.00551562
    3 H                    1.0000    -1.13031912     0.89955566     0.00598889
    4 F                    9.0000     0.26930999    -0.00452415    -1.09989044
    5 H oniom              1.0000     0.12916043     0.00399030     0.87994902

 Total times  cpu:        5.6s     wall:       13.8s
