============================== echo of input deck ==============================
echo

start

# Test of two-layer ONIOM geometry optimization and unscaled frequencies
# for acetaldehyde following
# Dapprich, Komaromi, Byun, Morokuma and Frisch, J. Mol. Struct (Theochem)
# 461-462 (1999) 1-21.

# Vibrational frequencies and geometry are correctly reproduced.
# See end for the correct output, or look in the paper.

geometry # sto-3g optmized geometry
  O     0.25977444     1.26351414    -0.32184727
  H    -1.42512409     0.38186873     0.37668588
  C    -0.38369252     0.28899452     0.02138351
  H     0.11527688    -1.57028792     1.00746379
  H    -0.46513157    -1.76803678    -0.64211149
  H     1.17645788    -1.17137932    -0.35247229
  C     0.15223603    -1.15091137     0.00543109
end

basis sto-3g
  h library sto-3g
  c library sto-3g
  o library sto-3g
end

basis dunning
  h library "SV (Dunning-Hay)"
  c library "SV (Dunning-Hay)"
  o library "SV (Dunning-Hay)"
end

scf; thresh 1e-6; end
dft; xc b3lyp; grid fine; convergence density 1e-6; end

oniom
  print low
  high dft basis dunning
  low  scf basis sto-3g
  model 3  3 7 0.709
end

driver; clear; end  # So that results are more reproducible
task oniom optimize

task oniom freq
================================================================================

         Total SCF energy =   -150.945992976955
         Total SCF energy =   -112.354098171670
         Total DFT energy =     -114.482430868448
@ Step       Energy      Delta E   Gmax     Grms     Xrms     Xmax   Walltime
@ ---- ---------------- -------- -------- -------- -------- -------- --------
@    0    -153.07432567  0.0D+00  0.03698  0.00817  0.00000  0.00000      0.7
         Total SCF energy =   -150.943489253852
         Total SCF energy =   -112.351489163970
         Total DFT energy =     -114.483045695778
         Total SCF energy =   -150.944785149582
         Total SCF energy =   -112.352822786139
         Total DFT energy =     -114.483250094491
@    1    -153.07521246 -8.9D-04  0.00151  0.00054  0.00982  0.03342      1.8
         Total SCF energy =   -150.944736345744
         Total SCF energy =   -112.352732793831
         Total DFT energy =     -114.483252462782
         Total SCF energy =   -150.944702497093
         Total SCF energy =   -112.352685082662
         Total DFT energy =     -114.483242023942
@    2    -153.07525944 -4.7D-05  0.00050  0.00016  0.00701  0.02339      2.8
         Total SCF energy =   -150.944696213339
         Total SCF energy =   -112.352669181698
         Total DFT energy =     -114.483235294384
         Total SCF energy =   -150.944696213339
         Total SCF energy =   -112.352669181698
         Total DFT energy =     -114.483235294413
@    3    -153.07526233 -2.9D-06  0.00009  0.00004  0.00187  0.00518      3.7
         Total SCF energy =   -150.944694802843
         Total SCF energy =   -112.352673971127
         Total DFT energy =     -114.483241688789
         Total SCF energy =   -150.944694467942
         Total SCF energy =   -112.352674947187
         Total DFT energy =     -114.483243005871
@    4    -153.07526253 -2.0D-07  0.00004  0.00001  0.00053  0.00126      4.7
@    4    -153.07526253 -2.0D-07  0.00004  0.00001  0.00053  0.00126      4.7

 Output coordinates in angstroms (scale by  1.889725989 to convert to a.u.)

  No.       Tag          Charge          X              Y              Z
 ---- ---------------- ---------- -------------- -------------- --------------
    1 O                    8.0000     0.26053178     1.26333219     0.00000000
    2 H                    1.0000    -1.53065523     0.28213945     0.00000000
    3 C                    6.0000    -0.42122521     0.22467318     0.00000000
    4 H                    1.0000    -0.15625852    -1.73362481     0.88002059
    5 H                    1.0000    -0.15625852    -1.73362481    -0.88002059
    6 H                    1.0000     1.26060593    -1.13908503     0.00000000
    7 C                    6.0000     0.17652125    -1.18904867     0.00000000

         Total SCF energy =   -150.944694467942
         Total SCF energy =   -112.352674947187
         Total DFT energy =     -114.483243005872
         Total SCF energy =   -150.944668331282
         Total SCF energy =   -112.352651838801
         Total DFT energy =     -114.483245904344
         Total SCF energy =   -150.944720234143
         Total SCF energy =   -112.352697681517
         Total DFT energy =     -114.483239855371
         Total SCF energy =   -150.944653016999
         Total SCF energy =   -112.352629907306
         Total DFT energy =     -114.483239158039
         Total SCF energy =   -150.944735207328
         Total SCF energy =   -112.352719273758
         Total DFT energy =     -114.483246343010
         Total SCF energy =   -150.944694447477
         Total SCF energy =   -112.352674926986
         Total DFT energy =     -114.483243003361
         Total SCF energy =   -150.944694447477
         Total SCF energy =   -112.352674926986
         Total DFT energy =     -114.483242997377
         Total SCF energy =   -150.944700887875
         Total SCF energy =   -112.352683424648
         Total DFT energy =     -114.483244902032
         Total SCF energy =   -150.944687620303
         Total SCF energy =   -112.352666039810
         Total DFT energy =     -114.483240830440
         Total SCF energy =   -150.944691454538
         Total SCF energy =   -112.352669923541
         Total DFT energy =     -114.483240980724
         Total SCF energy =   -150.944697392775
         Total SCF energy =   -112.352679882918
         Total DFT energy =     -114.483244993675
         Total SCF energy =   -150.944694455034
         Total SCF energy =   -112.352674934558
         Total DFT energy =     -114.483243002011
         Total SCF energy =   -150.944694455034
         Total SCF energy =   -112.352674934558
         Total DFT energy =     -114.483242996227
         Total SCF energy =   -150.944714824530
         Total SCF energy =   -112.352685141756
         Total DFT energy =     -114.483232522146
         Total SCF energy =   -150.944673178020
         Total SCF energy =   -112.352663903384
         Total DFT energy =     -114.483252907668
         Total SCF energy =   -150.944737547446
         Total SCF energy =   -112.352729937012
         Total DFT energy =     -114.483254572032
         Total SCF energy =   -150.944650346993
         Total SCF energy =   -112.352618992506
         Total DFT energy =     -114.483230757603
         Total SCF energy =   -150.944694346502
         Total SCF energy =   -112.352674860060
         Total DFT energy =     -114.483242942641
         Total SCF energy =   -150.944694346502
         Total SCF energy =   -112.352674860060
         Total DFT energy =     -114.483242937008
         Total SCF energy =   -150.944694431136
         Total SCF energy =   -112.352674947187
         Total DFT energy =     -114.483243016936
         Total SCF energy =   -150.944694399461
         Total SCF energy =   -112.352674947187
         Total DFT energy =     -114.483243021035
         Total SCF energy =   -150.944694395387
         Total SCF energy =   -112.352674947187
         Total DFT energy =     -114.483243021048
         Total SCF energy =   -150.944694370418
         Total SCF energy =   -112.352674947187
         Total DFT energy =     -114.483243021048
         Total SCF energy =   -150.944694282646
         Total SCF energy =   -112.352674947187
         Total DFT energy =     -114.483243021048
         Total SCF energy =   -150.944694316933
         Total SCF energy =   -112.352674947187
         Total DFT energy =     -114.483243021035
         Total SCF energy =   -150.944694185013
         Total SCF energy =   -112.352674947187
         Total DFT energy =     -114.483243021047
         Total SCF energy =   -150.944694268089
         Total SCF energy =   -112.352674947187
         Total DFT energy =     -114.483243021047
         Total SCF energy =   -150.944694423390
         Total SCF energy =   -112.352674947187
         Total DFT energy =     -114.483243021047
         Total SCF energy =   -150.944694442519
         Total SCF energy =   -112.352674947187
         Total DFT energy =     -114.483243021048
         Total SCF energy =   -150.944694434190
         Total SCF energy =   -112.352674947187
         Total DFT energy =     -114.483243021048
         Total SCF energy =   -150.944694434190
         Total SCF energy =   -112.352674947187
         Total DFT energy =     -114.483243021048
         Total SCF energy =   -150.944692548003
         Total SCF energy =   -112.352678522076
         Total DFT energy =     -114.483248126225
         Total SCF energy =   -150.944695539570
         Total SCF energy =   -112.352671302578
         Total DFT energy =     -114.483237861186
         Total SCF energy =   -150.944694558333
         Total SCF energy =   -112.352669032250
         Total DFT energy =     -114.483236632909
         Total SCF energy =   -150.944693661037
         Total SCF energy =   -112.352680650949
         Total DFT energy =     -114.483249253566
         Total SCF energy =   -150.944694070402
         Total SCF energy =   -112.352674942894
         Total DFT energy =     -114.483243002748
         Total SCF energy =   -150.944694070402
         Total SCF energy =   -112.352674942894
         Total DFT energy =     -114.483243002737
 Zero-Point correction to Energy  =   39.299 kcal/mol  (  0.062627 au)
 Thermal correction to Energy     =   41.695 kcal/mol  (  0.066445 au)
 Thermal correction to Enthalpy   =   42.287 kcal/mol  (  0.067388 au)
 Total Entropy                    =   62.503 cal/mol-K
   - Translational                =   37.256 cal/mol-K (mol. weight =  44.0262)
   - Rotational                   =   21.737 cal/mol-K (symmetry #  =        1)
   - Vibrational                  =    3.510 cal/mol-K
   - Translational                  =    2.979 cal/mol-K
   - Rotational                     =    2.979 cal/mol-K
   - Vibrational                    =    4.654 cal/mol-K
 P.Frequency       -0.00       -0.00        0.00        0.00        0.00        0.00
 P.Frequency      166.87      490.00      861.91      989.45     1253.28     1260.83
 P.Frequency     1429.10     1691.42     1718.85     1804.82     1816.35     2956.40
 P.Frequency     3563.62     3737.98     3762.31
 Total times  cpu:       21.7s     wall:       25.1s
