============================== echo of input deck ==============================
echo
title "Test PKZB functional"

start pkzb

geometry
  H     -1.62522691     0.82336660    -0.41716581
  N     -1.18023841    -0.07061179    -0.42251903
  C      0.19940157     0.03911263    -0.37821942
  H      0.77252807    -0.11338046    -1.30706692
  F      0.87977314    -0.05004215     0.77235361
end

basis cartesian
  C library 6-31g*
  N library 6-31g*
  F library 6-31g*
  H library 6-31g
end

dft
  xc xpkzb99 cpkzb99
  grid xfine
  vectors atomic
end
task dft

dft
  mult 1
  odft
  xc xpkzb99 cpkzb99
  grid xfine
  vectors atomic
end
task dft

dft
  mult 3
  odft
  xc xpkzb99 cpkzb99
  grid xfine
  vectors atomic
end
task dft
================================================================================

 Output coordinates in angstroms (scale by  1.889725989 to convert to a.u.)

  No.       Tag          Charge          X              Y              Z
 ---- ---------------- ---------- -------------- -------------- --------------
    1 H                    1.0000    -0.45702107     1.63174773     0.78857687
    2 N                    7.0000    -0.23616506     1.22924561    -0.09824637
    3 C                    6.0000     0.42748187     0.02114609     0.03395304
    4 H                    1.0000     1.51697132    -0.00488043    -0.12981864
    5 F                    9.0000    -0.21907623    -1.15094035    -0.01941687

         Total DFT energy =     -193.447067786246
         Total DFT energy =     -193.447067783780
         Total DFT energy =     -193.386657456145

                    DFT Final Alpha Molecular Orbital Analysis
                    ------------------------------------------

 Vector    1  Occ=1.000000D+00  E=-2.429128D+01

 Vector   19  Occ=0.000000D+00  E= 5.182722D-01

 Vector   20  Occ=0.000000D+00  E= 5.577074D-01

 Vector   21  Occ=0.000000D+00  E= 6.260428D-01

 Vector   22  Occ=0.000000D+00  E= 6.636503D-01

 Vector   23  Occ=0.000000D+00  E= 7.379972D-01

 Vector   24  Occ=0.000000D+00  E= 8.005427D-01

 Vector   25  Occ=0.000000D+00  E= 8.305503D-01

 Vector   26  Occ=0.000000D+00  E= 8.908407D-01

 Vector   27  Occ=0.000000D+00  E= 1.074820D+00

 Vector   28  Occ=0.000000D+00  E= 1.097895D+00

 Vector   29  Occ=0.000000D+00  E= 1.192989D+00

 Vector   30  Occ=0.000000D+00  E= 1.321436D+00

 Vector   31  Occ=0.000000D+00  E= 1.374402D+00

 Vector   32  Occ=0.000000D+00  E= 1.412691D+00

 Vector   33  Occ=0.000000D+00  E= 1.594949D+00

 Vector   34  Occ=0.000000D+00  E= 1.629005D+00

 Vector   35  Occ=0.000000D+00  E= 1.677633D+00

 Vector   36  Occ=0.000000D+00  E= 1.740001D+00

 Vector   37  Occ=0.000000D+00  E= 1.802443D+00

 Vector   38  Occ=0.000000D+00  E= 1.845708D+00

 Vector   39  Occ=0.000000D+00  E= 1.973465D+00

 Vector   40  Occ=0.000000D+00  E= 2.038907D+00

 Vector   41  Occ=0.000000D+00  E= 2.176052D+00

 Vector   42  Occ=0.000000D+00  E= 2.294951D+00

 Vector   43  Occ=0.000000D+00  E= 2.441750D+00

 Vector   44  Occ=0.000000D+00  E= 2.525278D+00

 Vector   45  Occ=0.000000D+00  E= 2.717729D+00

 Vector   46  Occ=0.000000D+00  E= 2.966003D+00

 Vector   47  Occ=0.000000D+00  E= 3.585894D+00

 Vector   48  Occ=0.000000D+00  E= 4.083913D+00

 Vector   49  Occ=0.000000D+00  E= 4.233218D+00

 Vector    1  Occ=1.000000D+00  E=-2.428714D+01

 Vector    2  Occ=1.000000D+00  E=-1.404748D+01

 Vector    3  Occ=1.000000D+00  E=-9.980087D+00

 Vector    4  Occ=1.000000D+00  E=-1.122152D+00

 Vector    5  Occ=1.000000D+00  E=-7.974623D-01

 Vector    6  Occ=1.000000D+00  E=-5.583383D-01

 Vector    7  Occ=1.000000D+00  E=-4.536630D-01

 Vector    8  Occ=1.000000D+00  E=-4.418413D-01

 Vector    9  Occ=1.000000D+00  E=-3.706588D-01

 Vector   10  Occ=1.000000D+00  E=-3.191156D-01

 Vector   11  Occ=1.000000D+00  E=-2.677668D-01

 Vector   12  Occ=0.000000D+00  E=-1.658530D-01

 Vector   13  Occ=0.000000D+00  E=-3.313985D-02

 Vector   14  Occ=0.000000D+00  E= 9.724786D-02

 Vector   15  Occ=0.000000D+00  E= 1.358947D-01

 Vector   16  Occ=0.000000D+00  E= 2.000532D-01

 Vector   17  Occ=0.000000D+00  E= 2.929979D-01

 Vector   18  Occ=0.000000D+00  E= 5.392716D-01

 Vector   19  Occ=0.000000D+00  E= 5.741205D-01

 Vector   20  Occ=0.000000D+00  E= 5.987754D-01

 Vector   21  Occ=0.000000D+00  E= 6.741543D-01

 Vector   22  Occ=0.000000D+00  E= 6.882663D-01

 Vector   23  Occ=0.000000D+00  E= 7.926984D-01

 Vector   24  Occ=0.000000D+00  E= 8.194364D-01

 Vector   25  Occ=0.000000D+00  E= 8.419148D-01

 Vector   26  Occ=0.000000D+00  E= 9.143642D-01

 Vector   27  Occ=0.000000D+00  E= 1.097526D+00

 Vector   28  Occ=0.000000D+00  E= 1.133872D+00

 Vector   29  Occ=0.000000D+00  E= 1.215363D+00

 Vector   30  Occ=0.000000D+00  E= 1.344788D+00

 Vector   31  Occ=0.000000D+00  E= 1.399464D+00

 Vector   32  Occ=0.000000D+00  E= 1.446336D+00

 Vector   33  Occ=0.000000D+00  E= 1.643202D+00

 Vector   34  Occ=0.000000D+00  E= 1.667332D+00

 Vector   35  Occ=0.000000D+00  E= 1.701116D+00

 Vector   36  Occ=0.000000D+00  E= 1.744600D+00

 Vector   37  Occ=0.000000D+00  E= 1.810926D+00

 Vector   38  Occ=0.000000D+00  E= 1.863268D+00

 Vector   39  Occ=0.000000D+00  E= 2.026664D+00

 Vector   40  Occ=0.000000D+00  E= 2.098300D+00

 Vector   41  Occ=0.000000D+00  E= 2.194544D+00

 Vector   42  Occ=0.000000D+00  E= 2.324481D+00

 Vector   43  Occ=0.000000D+00  E= 2.479854D+00

 Vector   44  Occ=0.000000D+00  E= 2.549483D+00

 Vector   45  Occ=0.000000D+00  E= 2.733682D+00

 Vector   46  Occ=0.000000D+00  E= 2.981862D+00

 Vector   47  Occ=0.000000D+00  E= 3.647262D+00

 Vector   48  Occ=0.000000D+00  E= 4.115041D+00

 Vector   49  Occ=0.000000D+00  E= 4.271666D+00

     Multipole analysis of the density
     ---------------------------------

     L   x y z        total         alpha         beta         nuclear
     -   - - -        -----         -----         ----         -------
     0   0 0 0     -0.000000    -13.000000    -11.000000     24.000000

     1   1 0 0      0.248782      0.025644      0.223137     -0.000000
     1   0 1 0      0.263998     -0.997391      1.261390     -0.000000
     1   0 0 1      0.478091      0.209588      0.268503      0.000000

     2   2 0 0    -11.421701    -15.081103    -12.156420     15.815822
     2   1 1 0     -0.144569      1.159276      0.345094     -1.648939
     2   1 0 1     -0.752311     -0.052256      0.262493     -0.962548
     2   0 2 0    -12.857579    -55.418222    -47.303740     89.864384
     2   0 1 1      1.923347     -0.024085     -0.364641      2.312073

 Total times  cpu:       24.1s     wall:       24.2s
