============================== echo of input deck ==============================
echo
start ptatom

geometry pt units au
 symmetry oh
 Pt 0       0        0
end

geometry pt-bq units au
#symmetry oh
 Pt  0       0        0
 bq  0       7        0   charge -0.25
 bq  0      -7        0   charge -0.25
 bq  7       0        0   charge -0.25
 bq -7       0        0   charge -0.25
end

BASIS "ao basis" PRINT
#BASIS SET: (8s,7p,6d) -> [6s,5p,3d]
Pt    S
     16.5595630             -0.8849447
     13.8924400              1.5011228
      5.8536080             -1.5529012
Pt    S
      1.2873200              1.0000000
Pt    S
      0.6047320              1.0000000
Pt    S
      0.1427830              1.0000000
Pt    S
      0.0509690              1.0000000
Pt    S
      0.0150000              1.0000000
Pt    P
      7.9251750              4.9530757
      7.3415380             -5.8982100
Pt    P
      1.9125150              0.3047425
      1.0715450              0.7164894
Pt    P
      0.4379170              1.0000000
Pt    P
      0.0936210              1.0000000
Pt    P
      0.0278020              1.0000000
Pt    D
      3.9395310             -0.5826439
      3.5877770              0.5922576
      1.2862310              0.4736921
      0.5198140              0.5765202
Pt    D
      0.1747150              1.0000000
Pt    D
      0.0500000              1.0000000
END
# ELEMENTS                      REFERENCES
#  ---------                       ----------
#

ECP
Pt nelec 60
Pt ul
2      1.000000000            0.000000000
Pt S
2     13.428651000          579.223861000
2      6.714326000           29.669491000
Pt P
2     10.365944000          280.860774000
2      5.182972000           26.745382000
Pt D
2      7.600479000          120.396444000
2      3.800240000           15.810921000
Pt F
2      3.309569000           24.314376000
Pt G
2      5.277289000          -24.218675000
END

dft
 max_ovl
 mult 3
 odft
 xc xpbe96 cpbe96
 iterations 1000
end

set geometry pt-bq
charge -1
dft
  vectors input atomic output pt.mos
end

task dft

set geometry pt
charge 0
dft
  vectors input pt.mos
end

task dft
================================================================================

 Output coordinates in a.u. (scale by  1.000000000 to convert to a.u.)

  No.       Tag          Charge          X              Y              Z
 ---- ---------------- ---------- -------------- -------------- --------------
    1 Pt                  78.0000     0.00000000     0.00000000     0.00000000
    2 bq                  -0.2500     7.00000000     0.00000000     0.00000000
    3 bq                  -0.2500    -7.00000000     0.00000000     0.00000000
    4 bq                  -0.2500     0.00000000    -7.00000000     0.00000000
    5 bq                  -0.2500     0.00000000     7.00000000     0.00000000

         Total DFT energy =     -119.296613388577

 Vector   38  Occ=0.000000D+00  E= 4.625350D+01  Symmetry=eu

 Vector   39  Occ=0.000000D+00  E= 1.489358D+02  Symmetry=a1g

     Multipole analysis of the density
     ---------------------------------

     L   x y z        total         alpha         beta         nuclear
     -   - - -        -----         -----         ----         -------
     0   0 0 0     -0.000000    -10.000000     -8.000000     18.000000

     1   1 0 0      0.000000      0.000000      0.000000      0.000000
     1   0 1 0      0.000000      0.000000      0.000000      0.000000
     1   0 0 1     -0.000000     -0.000000     -0.000000      0.000000

     2   2 0 0    -17.062539    -10.897862     -6.164678      0.000000
     2   1 1 0      0.000000      0.000000      0.000000      0.000000
     2   1 0 1      0.000000      0.000000      0.000000      0.000000
     2   0 2 0    -17.062539    -10.897862     -6.164678      0.000000
     2   0 1 1      0.000000      0.000000      0.000000      0.000000

         Total DFT energy =     -119.296122549213

                    DFT Final Alpha Molecular Orbital Analysis
                    ------------------------------------------

 Vector    1  Occ=1.000000D+00  E=-3.776031D+00  Symmetry=a1g

 Vector    2  Occ=1.000000D+00  E=-2.059560D+00  Symmetry=t1u

 Vector    3  Occ=1.000000D+00  E=-2.059560D+00  Symmetry=t1u

 Vector    4  Occ=1.000000D+00  E=-2.059560D+00  Symmetry=t1u

 Vector    5  Occ=1.000000D+00  E=-2.220445D-01  Symmetry=a1g

 Vector    6  Occ=1.000000D+00  E=-2.369654D-01  Symmetry=t2g

 Vector    7  Occ=1.000000D+00  E=-2.369654D-01  Symmetry=t2g

 Vector    8  Occ=1.000000D+00  E=-2.369654D-01  Symmetry=t2g

 Vector    9  Occ=1.000000D+00  E=-2.517044D-01  Symmetry=eg

 Vector   10  Occ=1.000000D+00  E=-2.517044D-01  Symmetry=eg

 Vector   11  Occ=0.000000D+00  E= 4.458381D-03  Symmetry=a1g

 Vector   12  Occ=0.000000D+00  E=-3.935284D-02  Symmetry=t1u

 Vector   13  Occ=0.000000D+00  E=-3.935284D-02  Symmetry=t1u

 Vector   14  Occ=0.000000D+00  E=-3.935284D-02  Symmetry=t1u

 Vector   15  Occ=0.000000D+00  E= 9.827611D-02  Symmetry=a1g

 Vector   16  Occ=0.000000D+00  E= 9.290852D-02  Symmetry=t2g

 Vector   17  Occ=0.000000D+00  E= 9.290852D-02  Symmetry=t2g

 Vector   18  Occ=0.000000D+00  E= 9.290852D-02  Symmetry=t2g

 Vector   19  Occ=0.000000D+00  E= 9.217409D-02  Symmetry=eg

 Vector   20  Occ=0.000000D+00  E= 9.199829D-02  Symmetry=t1u

 Vector   21  Occ=0.000000D+00  E= 9.199829D-02  Symmetry=t1u

 Vector   22  Occ=0.000000D+00  E= 9.199829D-02  Symmetry=t1u

 Vector   23  Occ=0.000000D+00  E= 9.217409D-02  Symmetry=eg

 Vector   24  Occ=0.000000D+00  E= 3.557846D-01  Symmetry=a1g

 Vector   25  Occ=0.000000D+00  E= 5.717172D-01  Symmetry=t2g

 Vector   26  Occ=0.000000D+00  E= 5.717172D-01  Symmetry=t2g

 Vector   27  Occ=0.000000D+00  E= 5.659221D-01  Symmetry=eg

 Vector   28  Occ=0.000000D+00  E= 5.717172D-01  Symmetry=t2g

 Vector   29  Occ=0.000000D+00  E= 5.659221D-01  Symmetry=eg

 Vector   30  Occ=0.000000D+00  E= 1.008374D+00  Symmetry=a1g

 Vector   31  Occ=0.000000D+00  E= 1.184655D+00  Symmetry=t1u

 Vector   32  Occ=0.000000D+00  E= 1.184655D+00  Symmetry=t1u

 Vector   33  Occ=0.000000D+00  E= 1.184655D+00  Symmetry=t1u

 Vector   34  Occ=0.000000D+00  E= 3.512749D+00  Symmetry=a1g

 Vector   35  Occ=0.000000D+00  E= 1.443441D+01  Symmetry=a1g

 Vector   36  Occ=0.000000D+00  E= 4.610545D+01  Symmetry=t1u

 Vector   37  Occ=0.000000D+00  E= 4.610545D+01  Symmetry=t1u

 Vector   38  Occ=0.000000D+00  E= 4.610545D+01  Symmetry=t1u

 Vector   39  Occ=0.000000D+00  E= 1.487858D+02  Symmetry=a1g

 Vector    1  Occ=1.000000D+00  E=-3.754385D+00  Symmetry=a1g

 Vector    2  Occ=1.000000D+00  E=-2.034649D+00  Symmetry=t1u

 Vector    3  Occ=1.000000D+00  E=-2.034649D+00  Symmetry=t1u

 Vector    4  Occ=1.000000D+00  E=-2.034649D+00  Symmetry=t1u

 Vector    5  Occ=1.000000D+00  E=-2.019731D-01  Symmetry=eg

 Vector    6  Occ=1.000000D+00  E=-2.130745D-01  Symmetry=t2g

 Vector    7  Occ=1.000000D+00  E=-2.130745D-01  Symmetry=t2g

 Vector    8  Occ=1.000000D+00  E=-2.130745D-01  Symmetry=t2g

 Vector    9  Occ=0.000000D+00  E=-2.019731D-01  Symmetry=eg

 Vector   10  Occ=0.000000D+00  E=-1.843916D-01  Symmetry=a1g

 Vector   11  Occ=0.000000D+00  E= 1.482087D-02  Symmetry=a1g

 Vector   12  Occ=0.000000D+00  E=-1.468982D-02  Symmetry=t1u

 Vector   13  Occ=0.000000D+00  E=-1.468982D-02  Symmetry=t1u

 Vector   14  Occ=0.000000D+00  E=-1.468982D-02  Symmetry=t1u

 Vector   15  Occ=0.000000D+00  E= 1.137016D-01  Symmetry=a1g

 Vector   16  Occ=0.000000D+00  E= 1.110088D-01  Symmetry=t2g

 Vector   17  Occ=0.000000D+00  E= 1.110088D-01  Symmetry=t2g

 Vector   18  Occ=0.000000D+00  E= 1.110088D-01  Symmetry=t2g

 Vector   19  Occ=0.000000D+00  E= 1.135778D-01  Symmetry=eg

 Vector   20  Occ=0.000000D+00  E= 1.147249D-01  Symmetry=t1u

 Vector   21  Occ=0.000000D+00  E= 1.147249D-01  Symmetry=t1u

 Vector   22  Occ=0.000000D+00  E= 1.147249D-01  Symmetry=t1u

 Vector   23  Occ=0.000000D+00  E= 1.135778D-01  Symmetry=eg

 Vector   24  Occ=0.000000D+00  E= 3.752956D-01  Symmetry=a1g

 Vector   25  Occ=0.000000D+00  E= 5.981590D-01  Symmetry=t2g

 Vector   26  Occ=0.000000D+00  E= 5.981590D-01  Symmetry=t2g

 Vector   27  Occ=0.000000D+00  E= 6.051264D-01  Symmetry=eg

 Vector   28  Occ=0.000000D+00  E= 5.981590D-01  Symmetry=t2g

 Vector   29  Occ=0.000000D+00  E= 6.051264D-01  Symmetry=eg

 Vector   30  Occ=0.000000D+00  E= 1.038074D+00  Symmetry=a1g

 Vector   31  Occ=0.000000D+00  E= 1.218341D+00  Symmetry=t1u

 Vector   32  Occ=0.000000D+00  E= 1.218341D+00  Symmetry=t1u

 Vector   33  Occ=0.000000D+00  E= 1.218341D+00  Symmetry=t1u

 Vector   34  Occ=0.000000D+00  E= 3.545201D+00  Symmetry=a1g

 Vector   35  Occ=0.000000D+00  E= 1.445924D+01  Symmetry=a1g

 Vector   36  Occ=0.000000D+00  E= 4.611714D+01  Symmetry=t1u

 Vector   37  Occ=0.000000D+00  E= 4.611714D+01  Symmetry=t1u

 Vector   38  Occ=0.000000D+00  E= 4.611714D+01  Symmetry=t1u

 Vector   39  Occ=0.000000D+00  E= 1.487957D+02  Symmetry=a1g

 Total times  cpu:        2.0s     wall:        2.2s
