============================== echo of input deck ==============================
echo
start tagbug

title "tag matching check with ECPs"
basis noprint
  Ca      library "lanl2dz ecp"
  F       library "6-31g"
  H       library "sto-3g"
end
ecp noprint
  CA      library "lanl2dz ecp"
end
geometry noautoz
  symmetry d2h
  h  0. 0. 2.77715371
  F  0. 0. 1.81331659
  cA 0.0 0. 0.
end
scf;noprint "final vectors analysis";end
task scf gradient
unset scf*
basis noprint
  Ca      library "lanl2dz ecp"
  F       library "6-31g"
  H       library "sto-3g"
end
ecp noprint
  Ca      library "lanl2dz ecp"
end
geometry noautoz
  symmetry d2h
  h  0. 0. 2.77715371
  F  0. 0. 1.81331659
  cA 0.0 0. 0.
end
scf;noprint "final vectors analysis";end
task scf gradient
================================================================================

         Total SCF energy =   -236.020629056662

 Output coordinates in angstroms (scale by  1.889725989 to convert to a.u.)

  No.       Tag          Charge          X              Y              Z
 ---- ---------------- ---------- -------------- -------------- --------------
    1 h                    1.0000     0.00000000     0.00000000     2.77715371
    2 h                    1.0000     0.00000000     0.00000000    -2.77715371
    3 F                    9.0000     0.00000000     0.00000000     1.81331659
    4 F                    9.0000     0.00000000     0.00000000    -1.81331659
    5 cA                  20.0000     0.00000000     0.00000000     0.00000000

         Total SCF energy =   -236.020629056662

       Multipole analysis of the density wrt the origin
       ------------------------------------------------

     L   x y z        total         open         nuclear
     -   - - -        -----         ----         -------
     0   0 0 0      0.000000      0.000000     30.000000

     1   1 0 0     -0.000000      0.000000      0.000000
     1   0 1 0      0.000000      0.000000      0.000000
     1   0 0 1      0.000000      0.000000      0.000000

     2   2 0 0    -29.330393      0.000000      0.000000
     2   1 1 0     -0.000000      0.000000      0.000000
     2   1 0 1     -0.000000      0.000000      0.000000
     2   0 2 0    -29.330393      0.000000      0.000000
     2   0 1 1     -0.000000      0.000000      0.000000

 Total times  cpu:        0.4s     wall:        0.5s
