============================== echo of input deck ==============================
title "uracil-6-31-Gs-act"
echo
start uracil-6-31-Gs-act

memory stack 1000 mb heap 100 mb global 1000 mb noverify

geometry units angstrom
N            .034130    -.986909     .000000
N          -1.173397     .981920     .000000
C          -1.218805    -.408164     .000000
C           -.007302    1.702153     .000000
C           1.196200    1.107045     .000000
C           1.289085    -.345905     .000000
O           2.310232    -.996874     .000000
O          -2.257041   -1.026495     .000000
H            .049329   -1.997961     .000000
H          -2.070598    1.437050     .000000
H           -.125651    2.776484     .000000
H           2.111671    1.674079     .000000
end

basis cartesian
* library 6-31G*
end

scf
thresh 1.0e-10
tol2e 1.0e-10
singlet
rhf
end

tce
freeze atomic
creom(t)ac
##emin_act  xxx
##emax_act  yyy
oact 21
uact 99
tilesize 15
thresh 1.0d-5
2eorb
2emet 13
nroots 1
symmetry
targetsym a'
end

task tce energy
================================================================================

 Output coordinates in angstroms (scale by  1.889725989 to convert to a.u.)

  No.       Tag          Charge          X              Y              Z
 ---- ---------------- ---------- -------------- -------------- --------------
    1 N                    7.0000    -0.98690909    -0.03391701     0.00000000
    2 N                    7.0000     0.98280277     1.17216932     0.00000000
    3 C                    6.0000    -0.40724764     1.21859426     0.00000000
    4 C                    6.0000     1.70218250     0.00554773     0.00000000
    5 C                    6.0000     1.10619421    -1.19751858     0.00000000
    6 C                    6.0000    -0.34682336    -1.28934062     0.00000000
    7 O                    8.0000    -0.99853922    -2.31001111     0.00000000
    8 O                    8.0000    -1.02481893     2.25728233     0.00000000
    9 H                    1.0000    -1.99797194    -0.04837635     0.00000000
   10 H                    1.0000     1.43858902     2.06903712     0.00000000
   11 H                    1.0000     2.77659979     0.12311075     0.00000000
   12 H                    1.0000     1.67255832    -2.11340416     0.00000000

         Total SCF energy =   -412.467948090945

 Vector    9  Occ=2.000000D+00  E=-1.434926D+00  Symmetry=a'

 Vector   10  Occ=2.000000D+00  E=-1.398948D+00  Symmetry=a'

 Vector   11  Occ=2.000000D+00  E=-1.309039D+00  Symmetry=a'

 Vector   12  Occ=2.000000D+00  E=-1.240420D+00  Symmetry=a'

 Vector   13  Occ=2.000000D+00  E=-1.084660D+00  Symmetry=a'

 Vector   14  Occ=2.000000D+00  E=-9.278071D-01  Symmetry=a'

 Vector   15  Occ=2.000000D+00  E=-8.950875D-01  Symmetry=a'

 Vector   16  Occ=2.000000D+00  E=-8.026245D-01  Symmetry=a'

 Vector   17  Occ=2.000000D+00  E=-7.601605D-01  Symmetry=a'

 Vector   18  Occ=2.000000D+00  E=-7.109997D-01  Symmetry=a'

 Vector   19  Occ=2.000000D+00  E=-6.722825D-01  Symmetry=a'

 Vector   20  Occ=2.000000D+00  E=-6.618833D-01  Symmetry=a"

 Vector   21  Occ=2.000000D+00  E=-6.476705D-01  Symmetry=a'

 Vector   22  Occ=2.000000D+00  E=-6.116511D-01  Symmetry=a'

 Vector   23  Occ=2.000000D+00  E=-5.973222D-01  Symmetry=a'

 Vector   24  Occ=2.000000D+00  E=-5.657946D-01  Symmetry=a"

 Vector   25  Occ=2.000000D+00  E=-5.207262D-01  Symmetry=a"

 Vector   26  Occ=2.000000D+00  E=-4.770904D-01  Symmetry=a'

 Vector   27  Occ=2.000000D+00  E=-4.416990D-01  Symmetry=a'

 Vector   28  Occ=2.000000D+00  E=-4.290800D-01  Symmetry=a"

 Vector   29  Occ=2.000000D+00  E=-3.623310D-01  Symmetry=a"

 Vector   30  Occ=0.000000D+00  E= 1.045321D-01  Symmetry=a"

 Vector   31  Occ=0.000000D+00  E= 1.801915D-01  Symmetry=a"

 Vector   32  Occ=0.000000D+00  E= 1.925793D-01  Symmetry=a'

 Vector   33  Occ=0.000000D+00  E= 2.502014D-01  Symmetry=a'

 Vector   34  Occ=0.000000D+00  E= 2.579657D-01  Symmetry=a'

 Vector   35  Occ=0.000000D+00  E= 3.002362D-01  Symmetry=a'

 Vector   36  Occ=0.000000D+00  E= 3.224373D-01  Symmetry=a"

 Vector   37  Occ=0.000000D+00  E= 3.740554D-01  Symmetry=a'

 Vector   38  Occ=0.000000D+00  E= 4.037653D-01  Symmetry=a'

 Vector   39  Occ=0.000000D+00  E= 4.228130D-01  Symmetry=a'

 Vector   40  Occ=0.000000D+00  E= 4.442168D-01  Symmetry=a'

 Vector   41  Occ=0.000000D+00  E= 4.998902D-01  Symmetry=a'

 Vector   42  Occ=0.000000D+00  E= 5.354223D-01  Symmetry=a'

       Multipole analysis of the density wrt the origin
       ------------------------------------------------

     L   x y z        total         open         nuclear
     -   - - -        -----         ----         -------
     0   0 0 0     -0.000000      0.000000     58.000000

     1   1 0 0      1.837197      0.000000      0.000000
     1   0 1 0      0.514000      0.000000     -0.000000
     1   0 0 1      0.000000      0.000000      0.000000

     2   2 0 0    -27.856398      0.000000    260.579374
     2   1 1 0      1.846123      0.000000     -0.217199
     2   1 0 1     -0.000000      0.000000      0.000000
     2   0 2 0    -43.627353      0.000000    461.850471
     2   0 1 1     -0.000000      0.000000      0.000000

 CCSD total energy / hartree       =      -413.658148234424800
 Total times  cpu:      732.3s     wall:      741.1s
