============================== echo of input deck ==============================
# $Id$
#
# This tests CIS, TDHF, TDDFT functionality at once
# by using a hybrid GGA functional for
# spin restricted reference with symmetry on.
# In particular we test the TDDFT Davidson restart capability.
# The reference results are simply the ones obtained by setting
# maxvecs large enough to avoid any restarts.

start tddft_h2o_dat

echo

title "TDDFT H2O B3LYP/6-31G** QA TEST"

geometry
O     0.00000000     0.00000000     0.12982363
H     0.75933475     0.00000000    -0.46621158
H    -0.75933475     0.00000000    -0.46621158
end

basis
O library 6-31G**
H library 6-31G**
end

dft
xc b3lyp
end

tddft
cis
nroots 10
#print convergence
#maxvecs 20
end

task tddft energy

tddft
cis
algorithm 3
nroots 10
#print convergence
#maxvecs 20
end

task tddft energy

tddft
nroots 9
#print convergence
#maxvecs 36
end

task tddft energy

tddft
algorithm  3
nroots 9
#print convergence
#maxvecs 36
end

task tddft energy
================================================================================

 Output coordinates in angstroms (scale by  1.889725989 to convert to a.u.)

  No.       Tag          Charge          X              Y              Z
 ---- ---------------- ---------- -------------- -------------- --------------
    1 O                    8.0000     0.00000000     0.00000000     0.11920704
    2 H                    1.0000     0.75933475     0.00000000    -0.47682817
    3 H                    1.0000    -0.75933475     0.00000000    -0.47682817

         Total DFT energy =      -76.419737926633

 Vector   21  Occ=0.000000D+00  E= 2.666765D+00  Symmetry=b2

 Vector   22  Occ=0.000000D+00  E= 3.027840D+00  Symmetry=a1

 Vector   23  Occ=0.000000D+00  E= 3.307190D+00  Symmetry=a1

 Vector   24  Occ=0.000000D+00  E= 3.531537D+00  Symmetry=b1

 Vector   25  Occ=0.000000D+00  E= 3.692901D+00  Symmetry=a1

  Root   1 singlet b2             0.295377093 a.u.                8.0376 eV
     Dipole Oscillator Strength                    0.0136647737
  Root   2 singlet a2             0.369342125 a.u.               10.0503 eV
     Dipole Oscillator Strength                    0.0000000000
  Root   3 singlet a1             0.390030661 a.u.               10.6133 eV
     Dipole Oscillator Strength                    0.1033683368
  Root   4 singlet b1             0.469576738 a.u.               12.7778 eV
     Dipole Oscillator Strength                    0.0764590916
  Root   5 singlet b1             0.535612362 a.u.               14.5748 eV
     Dipole Oscillator Strength                    0.4484820629
  Root   6 singlet a1             0.663605986 a.u.               18.0576 eV
     Dipole Oscillator Strength                    0.2514975516
  Root   7 singlet a2             0.962306523 a.u.               26.1857 eV
     Dipole Oscillator Strength                    0.0000000000
  Root   8 singlet b2             1.010100765 a.u.               27.4863 eV
     Dipole Oscillator Strength                    0.1122757179
  Root   9 singlet a1             1.020958426 a.u.               27.7817 eV
     Dipole Oscillator Strength                    0.0359298054
  Root  10 singlet b1             1.076371788 a.u.               29.2896 eV
     Dipole Oscillator Strength                    0.1640864178
  Root   1 triplet b2             0.267147387 a.u.                7.2695 eV
  Root   2 triplet a1             0.344563419 a.u.                9.3761 eV
  Root   3 triplet a2             0.349308065 a.u.                9.5052 eV
  Root   4 triplet b1             0.418901622 a.u.               11.3989 eV
  Root   5 triplet b1             0.482245456 a.u.               13.1226 eV
  Root   6 triplet a1             0.547157987 a.u.               14.8889 eV
  Root   7 triplet a1             0.946721262 a.u.               25.7616 eV
  Root   8 triplet a2             0.949755046 a.u.               25.8442 eV
  Root   9 triplet b2             0.971912591 a.u.               26.4471 eV
  Root  10 triplet a1             0.999273170 a.u.               27.1916 eV
         Total DFT energy =      -76.419737926787

 Vector    1  Occ=2.000000D+00  E=-1.913801D+01  Symmetry=a1

 Vector    2  Occ=2.000000D+00  E=-9.973141D-01  Symmetry=a1

 Vector    3  Occ=2.000000D+00  E=-5.149839D-01  Symmetry=b1

 Vector    4  Occ=2.000000D+00  E=-3.710237D-01  Symmetry=a1

 Vector    5  Occ=2.000000D+00  E=-2.919624D-01  Symmetry=b2

 Vector    6  Occ=0.000000D+00  E= 6.534603D-02  Symmetry=a1

 Vector    7  Occ=0.000000D+00  E= 1.512261D-01  Symmetry=b1

 Vector    8  Occ=0.000000D+00  E= 7.568468D-01  Symmetry=b1

 Vector    9  Occ=0.000000D+00  E= 8.055101D-01  Symmetry=a1

 Vector   10  Occ=0.000000D+00  E= 8.913503D-01  Symmetry=b2

 Vector   11  Occ=0.000000D+00  E= 8.935286D-01  Symmetry=a1

 Vector   12  Occ=0.000000D+00  E= 1.015566D+00  Symmetry=b1

 Vector   13  Occ=0.000000D+00  E= 1.175374D+00  Symmetry=a1

 Vector   14  Occ=0.000000D+00  E= 1.529509D+00  Symmetry=a2

 Vector   15  Occ=0.000000D+00  E= 1.537657D+00  Symmetry=a1

 Vector   16  Occ=0.000000D+00  E= 1.643631D+00  Symmetry=b2

 Vector   17  Occ=0.000000D+00  E= 2.238693D+00  Symmetry=a1

 Vector   18  Occ=0.000000D+00  E= 2.268206D+00  Symmetry=b1

 Vector   19  Occ=0.000000D+00  E= 2.450067D+00  Symmetry=b1

 Vector   20  Occ=0.000000D+00  E= 2.640993D+00  Symmetry=a2

 Vector   21  Occ=0.000000D+00  E= 2.666765D+00  Symmetry=b2

 Vector   22  Occ=0.000000D+00  E= 3.027840D+00  Symmetry=a1

 Vector   23  Occ=0.000000D+00  E= 3.307190D+00  Symmetry=a1

 Vector   24  Occ=0.000000D+00  E= 3.531537D+00  Symmetry=b1

 Vector   25  Occ=0.000000D+00  E= 3.692901D+00  Symmetry=a1

  Root   1 singlet b2             0.295376751 a.u.                8.0376 eV
     Dipole Oscillator Strength                    0.0136647457
  Root   2 singlet a2             0.369341851 a.u.               10.0503 eV
     Dipole Oscillator Strength                    0.0000000000
  Root   3 singlet a1             0.390030369 a.u.               10.6133 eV
     Dipole Oscillator Strength                    0.1033679869
  Root   4 singlet b1             0.469576542 a.u.               12.7778 eV
     Dipole Oscillator Strength                    0.0764586761
  Root   5 singlet b1             0.535612098 a.u.               14.5748 eV
     Dipole Oscillator Strength                    0.4484823775
  Root   6 singlet a1             0.663605778 a.u.               18.0576 eV
     Dipole Oscillator Strength                    0.2514975494
  Root   7 singlet a2             0.962306209 a.u.               26.1857 eV
     Dipole Oscillator Strength                    0.0000000000
  Root   8 singlet b2             1.010100568 a.u.               27.4862 eV
     Dipole Oscillator Strength                    0.1122757911
  Root   9 singlet a1             1.020958103 a.u.               27.7817 eV
     Dipole Oscillator Strength                    0.0359299646
  Root  10 singlet b1             1.076371537 a.u.               29.2896 eV
     Dipole Oscillator Strength                    0.1640864631
  Root   1 triplet b2             0.267147046 a.u.                7.2694 eV
  Root   2 triplet a1             0.344563206 a.u.                9.3760 eV
  Root   3 triplet a2             0.349307775 a.u.                9.5052 eV
  Root   4 triplet b1             0.418901453 a.u.               11.3989 eV
  Root   5 triplet b1             0.482245151 a.u.               13.1226 eV
  Root   6 triplet a1             0.547157758 a.u.               14.8889 eV
  Root   7 triplet a1             0.946720985 a.u.               25.7616 eV
  Root   8 triplet a2             0.949754728 a.u.               25.8442 eV
  Root   9 triplet b2             0.971912376 a.u.               26.4471 eV
  Root  10 triplet a1             0.999273021 a.u.               27.1916 eV
         Total DFT energy =      -76.419737926788

 Vector    1  Occ=2.000000D+00  E=-1.913801D+01  Symmetry=a1

 Vector    2  Occ=2.000000D+00  E=-9.973140D-01  Symmetry=a1

 Vector    3  Occ=2.000000D+00  E=-5.149839D-01  Symmetry=b1

 Vector    4  Occ=2.000000D+00  E=-3.710237D-01  Symmetry=a1

 Vector    5  Occ=2.000000D+00  E=-2.919624D-01  Symmetry=b2

 Vector    6  Occ=0.000000D+00  E= 6.534604D-02  Symmetry=a1

 Vector    7  Occ=0.000000D+00  E= 1.512261D-01  Symmetry=b1

 Vector    8  Occ=0.000000D+00  E= 7.568468D-01  Symmetry=b1

 Vector    9  Occ=0.000000D+00  E= 8.055101D-01  Symmetry=a1

 Vector   10  Occ=0.000000D+00  E= 8.913504D-01  Symmetry=b2

 Vector   11  Occ=0.000000D+00  E= 8.935286D-01  Symmetry=a1

 Vector   12  Occ=0.000000D+00  E= 1.015566D+00  Symmetry=b1

 Vector   13  Occ=0.000000D+00  E= 1.175375D+00  Symmetry=a1

 Vector   14  Occ=0.000000D+00  E= 1.529510D+00  Symmetry=a2

 Vector   15  Occ=0.000000D+00  E= 1.537657D+00  Symmetry=a1

 Vector   16  Occ=0.000000D+00  E= 1.643631D+00  Symmetry=b2

 Vector   17  Occ=0.000000D+00  E= 2.238693D+00  Symmetry=a1

 Vector   18  Occ=0.000000D+00  E= 2.268206D+00  Symmetry=b1

 Vector   19  Occ=0.000000D+00  E= 2.450067D+00  Symmetry=b1

 Vector   20  Occ=0.000000D+00  E= 2.640993D+00  Symmetry=a2

 Vector   21  Occ=0.000000D+00  E= 2.666765D+00  Symmetry=b2

 Vector   22  Occ=0.000000D+00  E= 3.027841D+00  Symmetry=a1

 Vector   23  Occ=0.000000D+00  E= 3.307190D+00  Symmetry=a1

 Vector   24  Occ=0.000000D+00  E= 3.531537D+00  Symmetry=b1

 Vector   25  Occ=0.000000D+00  E= 3.692901D+00  Symmetry=a1

  Root   1 singlet b2             0.294220997 a.u.                8.0062 eV
     Dipole Oscillator Strength                    0.0141833295
  Root   2 singlet a2             0.369097186 a.u.               10.0436 eV
     Dipole Oscillator Strength                    0.0000000000
  Root   3 singlet a1             0.387064417 a.u.               10.5326 eV
     Dipole Oscillator Strength                    0.0943337442
  Root   4 singlet b1             0.466992136 a.u.               12.7075 eV
     Dipole Oscillator Strength                    0.0697294095
  Root   5 singlet b1             0.533227388 a.u.               14.5099 eV
     Dipole Oscillator Strength                    0.3933837280
  Root   6 singlet a1             0.652737979 a.u.               17.7619 eV
     Dipole Oscillator Strength                    0.2040140994
  Root   7 singlet a2             0.962204478 a.u.               26.1829 eV
     Dipole Oscillator Strength                    0.0000000000
  Root   8 singlet b2             1.009123498 a.u.               27.4597 eV
     Dipole Oscillator Strength                    0.1040647618
  Root   9 singlet a1             1.018624613 a.u.               27.7182 eV
     Dipole Oscillator Strength                    0.0329847062
  Root   1 triplet b2             0.265905117 a.u.                7.2356 eV
  Root   2 triplet a1             0.342027712 a.u.                9.3071 eV
  Root   3 triplet a2             0.348121087 a.u.                9.4729 eV
  Root   4 triplet b1             0.415497573 a.u.               11.3063 eV
  Root   5 triplet b1             0.480288079 a.u.               13.0693 eV
  Root   6 triplet a1             0.542223020 a.u.               14.7546 eV
  Root   7 triplet a1             0.942023328 a.u.               25.6338 eV
  Root   8 triplet a2             0.949236742 a.u.               25.8301 eV
  Root   9 triplet b2             0.970542369 a.u.               26.4098 eV
         Total DFT energy =      -76.419737926788

                       DFT Final Molecular Orbital Analysis
                       ------------------------------------

 Vector    1  Occ=2.000000D+00  E=-1.913801D+01  Symmetry=a1

 Vector    2  Occ=2.000000D+00  E=-9.973140D-01  Symmetry=a1

 Vector    3  Occ=2.000000D+00  E=-5.149839D-01  Symmetry=b1

 Vector    4  Occ=2.000000D+00  E=-3.710237D-01  Symmetry=a1

 Vector    5  Occ=2.000000D+00  E=-2.919624D-01  Symmetry=b2

 Vector    6  Occ=0.000000D+00  E= 6.534604D-02  Symmetry=a1

 Vector    7  Occ=0.000000D+00  E= 1.512261D-01  Symmetry=b1

 Vector    8  Occ=0.000000D+00  E= 7.568468D-01  Symmetry=b1

 Vector    9  Occ=0.000000D+00  E= 8.055101D-01  Symmetry=a1

 Vector   10  Occ=0.000000D+00  E= 8.913504D-01  Symmetry=b2

 Vector   11  Occ=0.000000D+00  E= 8.935286D-01  Symmetry=a1

 Vector   12  Occ=0.000000D+00  E= 1.015566D+00  Symmetry=b1

 Vector   13  Occ=0.000000D+00  E= 1.175375D+00  Symmetry=a1

 Vector   14  Occ=0.000000D+00  E= 1.529510D+00  Symmetry=a2

 Vector   15  Occ=0.000000D+00  E= 1.537657D+00  Symmetry=a1

 Vector   16  Occ=0.000000D+00  E= 1.643631D+00  Symmetry=b2

 Vector   17  Occ=0.000000D+00  E= 2.238693D+00  Symmetry=a1

 Vector   18  Occ=0.000000D+00  E= 2.268206D+00  Symmetry=b1

 Vector   19  Occ=0.000000D+00  E= 2.450067D+00  Symmetry=b1

 Vector   20  Occ=0.000000D+00  E= 2.640993D+00  Symmetry=a2

 Vector   21  Occ=0.000000D+00  E= 2.666765D+00  Symmetry=b2

 Vector   22  Occ=0.000000D+00  E= 3.027841D+00  Symmetry=a1

 Vector   23  Occ=0.000000D+00  E= 3.307190D+00  Symmetry=a1

 Vector   24  Occ=0.000000D+00  E= 3.531537D+00  Symmetry=b1

 Vector   25  Occ=0.000000D+00  E= 3.692901D+00  Symmetry=a1

     Multipole analysis of the density
     ---------------------------------

     L   x y z        total         alpha         beta         nuclear
     -   - - -        -----         -----         ----         -------
     0   0 0 0     -0.000000     -5.000000     -5.000000     10.000000

     1   1 0 0     -0.000000     -0.000000     -0.000000      0.000000
     1   0 1 0     -0.000000     -0.000000     -0.000000      0.000000
     1   0 0 1     -0.803750     -0.401875     -0.401875      0.000000

     2   2 0 0     -3.194729     -3.656402     -3.656402      4.118075
     2   1 1 0     -0.000000     -0.000000     -0.000000      0.000000
     2   1 0 1      0.000000      0.000000      0.000000      0.000000
     2   0 2 0     -5.306781     -2.653391     -2.653391      0.000000
     2   0 1 1     -0.000000     -0.000000     -0.000000      0.000000

  Root   1 singlet b2             0.294220995 a.u.                8.0062 eV
     Dipole Oscillator Strength                    0.0141833293
  Root   2 singlet a2             0.369097185 a.u.               10.0436 eV
     Dipole Oscillator Strength                    0.0000000000
  Root   3 singlet a1             0.387064415 a.u.               10.5326 eV
     Dipole Oscillator Strength                    0.0943337418
  Root   4 singlet b1             0.466992135 a.u.               12.7075 eV
     Dipole Oscillator Strength                    0.0697294067
  Root   5 singlet b1             0.533227386 a.u.               14.5099 eV
     Dipole Oscillator Strength                    0.3933837302
  Root   6 singlet a1             0.652737978 a.u.               17.7619 eV
     Dipole Oscillator Strength                    0.2040140998
  Root   7 singlet a2             0.962204476 a.u.               26.1829 eV
     Dipole Oscillator Strength                    0.0000000000
  Root   8 singlet b2             1.009123497 a.u.               27.4597 eV
     Dipole Oscillator Strength                    0.1040647622
  Root   9 singlet a1             1.018624611 a.u.               27.7182 eV
     Dipole Oscillator Strength                    0.0329847074
  Root   1 triplet b2             0.265905115 a.u.                7.2356 eV
  Root   2 triplet a1             0.342027711 a.u.                9.3071 eV
  Root   3 triplet a2             0.348121085 a.u.                9.4729 eV
  Root   4 triplet b1             0.415497572 a.u.               11.3063 eV
  Root   5 triplet b1             0.480288077 a.u.               13.0693 eV
  Root   6 triplet a1             0.542223019 a.u.               14.7546 eV
  Root   7 triplet a1             0.942023326 a.u.               25.6338 eV
  Root   8 triplet a2             0.949236740 a.u.               25.8301 eV
  Root   9 triplet b2             0.970542367 a.u.               26.4098 eV
 Total times  cpu:       12.6s     wall:       13.3s
