============================== echo of input deck ==============================
#
# Test for Casida-Salahub asymptotic correction
# Casida, Salahub JCP 113, 8918 (2000).
# CO AC-LDA -HOMO = 13.78 eV (different geometry, different basis set)
# CO Delta SCF IP = 14.10 eV versus -HOMO = 9.10 eV (shift = 5.00 eV)
# Tozer, Handy, JCP 109, 10180 (1998).
# Experimental vertical excitation energies of CO
# Singlet: 8.51, 9.88, 10.23, 10.78, 11.40, 11.53, 12.4 eV
# Triplet: 6.32, 8.51, 9.36, 9.88, 10.4, 11.3, 11.55 eV
#
# turned off autsym since c4v is non-abelian
# imposed c2v abelian group
#
start tddft_ac_co

echo

charge 0

geometry
O 0.0 0.0  0.0000
C 0.0 0.0  1.1283
symmetry c2v
end

basis spherical
C library aug-cc-pVDZ
O library aug-cc-pVDZ
end

dft
xc slater vwn_5
cs00 0.1837
end

tddft
nroots 12
end

task tddft energy
================================================================================

 Output coordinates in angstroms (scale by  1.889725989 to convert to a.u.)

  No.       Tag          Charge          X              Y              Z
 ---- ---------------- ---------- -------------- -------------- --------------
    1 O                    8.0000     0.00000000     0.00000000    -0.48355714
    2 C                    6.0000     0.00000000     0.00000000     0.64474286

         Total DFT energy =     -112.431426891666

                       DFT Final Molecular Orbital Analysis
                       ------------------------------------

 Vector    1  Occ=2.000000D+00  E=-1.892045D+01  Symmetry=a1

 Vector    2  Occ=2.000000D+00  E=-1.011789D+01  Symmetry=a1

 Vector    3  Occ=2.000000D+00  E=-1.247122D+00  Symmetry=a1

 Vector    4  Occ=2.000000D+00  E=-6.951882D-01  Symmetry=a1

 Vector    5  Occ=2.000000D+00  E=-6.213805D-01  Symmetry=b2

 Vector    6  Occ=2.000000D+00  E=-6.213805D-01  Symmetry=b1

 Vector    7  Occ=2.000000D+00  E=-5.067600D-01  Symmetry=a1

 Vector    8  Occ=0.000000D+00  E=-2.550514D-01  Symmetry=b2

 Vector    9  Occ=0.000000D+00  E=-2.550514D-01  Symmetry=b1

 Vector   10  Occ=0.000000D+00  E=-1.224548D-01  Symmetry=a1

 Vector   11  Occ=0.000000D+00  E=-8.128780D-02  Symmetry=a1

 Vector   12  Occ=0.000000D+00  E=-7.613261D-02  Symmetry=b2

 Vector   13  Occ=0.000000D+00  E=-7.613235D-02  Symmetry=b1

 Vector   14  Occ=0.000000D+00  E=-1.012222D-02  Symmetry=a1

 Vector   15  Occ=0.000000D+00  E= 2.098089D-02  Symmetry=b2

 Vector   16  Occ=0.000000D+00  E= 2.098099D-02  Symmetry=b1

 Vector   17  Occ=0.000000D+00  E= 8.721868D-02  Symmetry=a1

 Vector   18  Occ=0.000000D+00  E= 1.109573D-01  Symmetry=a1

 Vector   19  Occ=0.000000D+00  E= 1.109583D-01  Symmetry=a2

 Vector   20  Occ=0.000000D+00  E= 2.003092D-01  Symmetry=a1

 Vector   21  Occ=0.000000D+00  E= 2.667489D-01  Symmetry=b2

 Vector   22  Occ=0.000000D+00  E= 2.667489D-01  Symmetry=b1

 Vector   23  Occ=0.000000D+00  E= 3.590784D-01  Symmetry=b2

 Vector   24  Occ=0.000000D+00  E= 3.590784D-01  Symmetry=b1

 Vector   25  Occ=0.000000D+00  E= 3.672944D-01  Symmetry=a1

 Vector   26  Occ=0.000000D+00  E= 4.838530D-01  Symmetry=a1

 Vector   27  Occ=0.000000D+00  E= 6.313495D-01  Symmetry=a1

     Multipole analysis of the density
     ---------------------------------

     L   x y z        total         alpha         beta         nuclear
     -   - - -        -----         -----         ----         -------
     0   0 0 0      0.000000     -7.000000     -7.000000     14.000000

     1   1 0 0      0.000000      0.000000      0.000000      0.000000
     1   0 1 0      0.000000      0.000000      0.000000      0.000000
     1   0 0 1     -0.043023     -0.021512     -0.021512      0.000000

     2   2 0 0     -7.767377     -3.883689     -3.883689      0.000000
     2   1 1 0      0.000000      0.000000      0.000000      0.000000
     2   1 0 1      0.000000      0.000000      0.000000      0.000000
     2   0 2 0     -7.767377     -3.883689     -3.883689      0.000000
     2   0 1 1      0.000000      0.000000      0.000000      0.000000

  Root   1 singlet b2             0.301391641 a.u.                8.2013 eV
     Dipole Oscillator Strength                         0.07817
  Root   2 singlet b1             0.301391648 a.u.                8.2013 eV
     Dipole Oscillator Strength                         0.07817
  Root   3 singlet a2             0.366329021 a.u.                9.9683 eV
     Dipole Oscillator Strength                         0.00000
  Root   4 singlet a1             0.383697816 a.u.               10.4410 eV
     Dipole Oscillator Strength                         0.00000
  Root   5 singlet a2             0.383697821 a.u.               10.4410 eV
     Dipole Oscillator Strength                         0.00000
  Root   6 singlet a1             0.393832814 a.u.               10.7167 eV
     Dipole Oscillator Strength                         0.01857
  Root   7 singlet b2             0.429000638 a.u.               11.6737 eV
     Dipole Oscillator Strength                         0.06927
  Root   8 singlet b1             0.429000891 a.u.               11.6737 eV
     Dipole Oscillator Strength                         0.06927
  Root   9 singlet a1             0.430293160 a.u.               11.7089 eV
     Dipole Oscillator Strength                         0.22028
  Root  10 singlet b2             0.484381526 a.u.               13.1807 eV
     Dipole Oscillator Strength                         0.09635
  Root  11 singlet b1             0.484381532 a.u.               13.1807 eV
     Dipole Oscillator Strength                         0.09635
  Root  12 singlet a1             0.491743202 a.u.               13.3810 eV
     Dipole Oscillator Strength                         0.06010
  Root   1 triplet b2             0.218250395 a.u.                5.9389 eV
  Root   2 triplet b1             0.218250396 a.u.                5.9389 eV
  Root   3 triplet a1             0.312885709 a.u.                8.5141 eV
  Root   4 triplet a1             0.341350692 a.u.                9.2886 eV
  Root   5 triplet a2             0.341350700 a.u.                9.2886 eV
  Root   6 triplet a2             0.366329021 a.u.                9.9683 eV
  Root   7 triplet a1             0.376314926 a.u.               10.2401 eV
  Root   8 triplet a1             0.416699739 a.u.               11.3390 eV
  Root   9 triplet b2             0.418575827 a.u.               11.3900 eV
  Root  10 triplet b1             0.418575858 a.u.               11.3900 eV
  Root  11 triplet b2             0.426893279 a.u.               11.6164 eV
  Root  12 triplet b1             0.426893500 a.u.               11.6164 eV
 Total times  cpu:       42.3s     wall:       53.5s
