============================== echo of input deck ==============================
# This tests CIS, TDHF, TDDFT functionality at once
# by using a hybrid LDA, GGA, HF functional for
# spin restricted reference with symmetry on.

start tddft_h2o

echo

title "TDDFT H2O B3LYP/6-31G** QA TEST"

geometry
O     0.00000000     0.00000000     0.12982363
H     0.75933475     0.00000000    -0.46621158
H    -0.75933475     0.00000000    -0.46621158
end

basis
O library 6-31G**
H library 6-31G**
end

dft
xc b3lyp
end

tddft
nroots 10
end

task tddft energy
================================================================================

 Output coordinates in angstroms (scale by  1.889725989 to convert to a.u.)

  No.       Tag          Charge          X              Y              Z
 ---- ---------------- ---------- -------------- -------------- --------------
    1 O                    8.0000     0.00000000     0.00000000     0.11920704
    2 H                    1.0000     0.75933475     0.00000000    -0.47682817
    3 H                    1.0000    -0.75933475     0.00000000    -0.47682817

         Total DFT energy =      -76.419737926598

                       DFT Final Molecular Orbital Analysis
                       ------------------------------------

 Vector    1  Occ=2.000000D+00  E=-1.913801D+01  Symmetry=a1

 Vector    2  Occ=2.000000D+00  E=-9.973144D-01  Symmetry=a1

 Vector    3  Occ=2.000000D+00  E=-5.149842D-01  Symmetry=b1

 Vector    4  Occ=2.000000D+00  E=-3.710239D-01  Symmetry=a1

 Vector    5  Occ=2.000000D+00  E=-2.919627D-01  Symmetry=b2

 Vector    6  Occ=0.000000D+00  E= 6.534608D-02  Symmetry=a1

 Vector    7  Occ=0.000000D+00  E= 1.512260D-01  Symmetry=b1

 Vector    8  Occ=0.000000D+00  E= 7.568468D-01  Symmetry=b1

 Vector    9  Occ=0.000000D+00  E= 8.055100D-01  Symmetry=a1

 Vector   10  Occ=0.000000D+00  E= 8.913501D-01  Symmetry=b2

 Vector   11  Occ=0.000000D+00  E= 8.935284D-01  Symmetry=a1

 Vector   12  Occ=0.000000D+00  E= 1.015566D+00  Symmetry=b1

 Vector   13  Occ=0.000000D+00  E= 1.175374D+00  Symmetry=a1

 Vector   14  Occ=0.000000D+00  E= 1.529509D+00  Symmetry=a2

 Vector   15  Occ=0.000000D+00  E= 1.537657D+00  Symmetry=a1

     Multipole analysis of the density
     ---------------------------------

     L   x y z        total         alpha         beta         nuclear
     -   - - -        -----         -----         ----         -------
     0   0 0 0      0.000000     -5.000000     -5.000000     10.000000

     1   1 0 0      0.000000      0.000000      0.000000      0.000000
     1   0 1 0      0.000000      0.000000      0.000000      0.000000
     1   0 0 1     -0.803751     -0.401875     -0.401875      0.000000

     2   2 0 0     -3.194726     -3.656400     -3.656400      4.118075
     2   1 1 0      0.000000      0.000000      0.000000      0.000000
     2   1 0 1      0.000000      0.000000      0.000000      0.000000
     2   0 2 0     -5.306780     -2.653390     -2.653390      0.000000
     2   0 1 1      0.000000      0.000000      0.000000      0.000000

  Root   1 singlet b2             0.294221372 a.u.                8.0062 eV
     Dipole Oscillator Strength                         0.01418
  Root   2 singlet a2             0.369097477 a.u.               10.0437 eV
     Dipole Oscillator Strength                         0.00000
  Root   3 singlet a1             0.387064734 a.u.               10.5326 eV
     Dipole Oscillator Strength                         0.09433
  Root   4 singlet b1             0.466992344 a.u.               12.7075 eV
     Dipole Oscillator Strength                         0.06973
  Root   5 singlet b1             0.533227685 a.u.               14.5099 eV
     Dipole Oscillator Strength                         0.39338
  Root   6 singlet a1             0.652738203 a.u.               17.7619 eV
     Dipole Oscillator Strength                         0.20401
  Root   7 singlet a2             0.962204812 a.u.               26.1829 eV
     Dipole Oscillator Strength                         0.00000
  Root   8 singlet b2             1.009123714 a.u.               27.4597 eV
     Dipole Oscillator Strength                         0.10406
  Root   9 singlet a1             1.018624973 a.u.               27.7182 eV
     Dipole Oscillator Strength                         0.03298
  Root  10 singlet b1             1.074907909 a.u.               29.2497 eV
     Dipole Oscillator Strength                         0.14279
  Root   1 triplet b2             0.265905488 a.u.                7.2357 eV
  Root   2 triplet a1             0.342027946 a.u.                9.3071 eV
  Root   3 triplet a2             0.348121396 a.u.                9.4729 eV
  Root   4 triplet b1             0.415497754 a.u.               11.3063 eV
  Root   5 triplet b1             0.480288417 a.u.               13.0693 eV
  Root   6 triplet a1             0.542223267 a.u.               14.7547 eV
  Root   7 triplet a1             0.942023625 a.u.               25.6338 eV
  Root   8 triplet a2             0.949237080 a.u.               25.8301 eV
  Root   9 triplet b2             0.970542598 a.u.               26.4098 eV
  Root  10 triplet a1             0.995643331 a.u.               27.0928 eV
 Total times  cpu:       25.1s     wall:       33.8s
