============================== echo of input deck ==============================
echo
title "Test TPSS"

start tpss

geometry
  H     -1.62522691     0.82336660    -0.41716581
  N     -1.18023841    -0.07061179    -0.42251903
  C      0.19940157     0.03911263    -0.37821942
  H      0.77252807    -0.11338046    -1.30706692
  F      0.87977314    -0.05004215     0.77235361
end

basis cartesian
  C library 6-31g*
  N library 6-31g*
  F library 6-31g*
  H library 6-31g
end

dft
 xc xtpss03 ctpss03
 grid xfine
 vectors atomic
end
task dft

dft
  mult 1
  odft
  xc xtpss03 ctpss03
  grid xfine
  vectors atomic
end
task dft

dft
  mult 3
  odft
  xc xtpss03 ctpss03
  grid xfine
  vectors atomic
end
task dft
================================================================================

 Output coordinates in angstroms (scale by  1.889725989 to convert to a.u.)

  No.       Tag          Charge          X              Y              Z
 ---- ---------------- ---------- -------------- -------------- --------------
    1 H                    1.0000    -0.45702107     1.63174773     0.78857687
    2 N                    7.0000    -0.23616506     1.22924561    -0.09824637
    3 C                    6.0000     0.42748187     0.02114609     0.03395304
    4 H                    1.0000     1.51697132    -0.00488043    -0.12981864
    5 F                    9.0000    -0.21907623    -1.15094035    -0.01941687

         Total DFT energy =     -193.818993080626
         Total DFT energy =     -193.818993077679
         Total DFT energy =     -193.766290591282

                    DFT Final Alpha Molecular Orbital Analysis
                    ------------------------------------------

 Vector    1  Occ=1.000000D+00  E=-2.444117D+01

 Vector   19  Occ=0.000000D+00  E= 5.035834D-01

 Vector   20  Occ=0.000000D+00  E= 5.472811D-01

 Vector   21  Occ=0.000000D+00  E= 6.141699D-01

 Vector   22  Occ=0.000000D+00  E= 6.479488D-01

 Vector   23  Occ=0.000000D+00  E= 7.244454D-01

 Vector   24  Occ=0.000000D+00  E= 7.954153D-01

 Vector   25  Occ=0.000000D+00  E= 8.246965D-01

 Vector   26  Occ=0.000000D+00  E= 8.775132D-01

 Vector   27  Occ=0.000000D+00  E= 1.064819D+00

 Vector   28  Occ=0.000000D+00  E= 1.087611D+00

 Vector   29  Occ=0.000000D+00  E= 1.182930D+00

 Vector   30  Occ=0.000000D+00  E= 1.314846D+00

 Vector   31  Occ=0.000000D+00  E= 1.381529D+00

 Vector   32  Occ=0.000000D+00  E= 1.422713D+00

 Vector   33  Occ=0.000000D+00  E= 1.611304D+00

 Vector   34  Occ=0.000000D+00  E= 1.639001D+00

 Vector   35  Occ=0.000000D+00  E= 1.685059D+00

 Vector   36  Occ=0.000000D+00  E= 1.749715D+00

 Vector   37  Occ=0.000000D+00  E= 1.809951D+00

 Vector   38  Occ=0.000000D+00  E= 1.851650D+00

 Vector   39  Occ=0.000000D+00  E= 1.987944D+00

 Vector   40  Occ=0.000000D+00  E= 2.059398D+00

 Vector   41  Occ=0.000000D+00  E= 2.196267D+00

 Vector   42  Occ=0.000000D+00  E= 2.320763D+00

 Vector   43  Occ=0.000000D+00  E= 2.466360D+00

 Vector   44  Occ=0.000000D+00  E= 2.547331D+00

 Vector   45  Occ=0.000000D+00  E= 2.737323D+00

 Vector   46  Occ=0.000000D+00  E= 2.967959D+00

 Vector   47  Occ=0.000000D+00  E= 3.594574D+00

 Vector   48  Occ=0.000000D+00  E= 4.077738D+00

 Vector   49  Occ=0.000000D+00  E= 4.229812D+00

 Vector    1  Occ=1.000000D+00  E=-2.443604D+01

 Vector    2  Occ=1.000000D+00  E=-1.415312D+01

 Vector    3  Occ=1.000000D+00  E=-1.007169D+01

 Vector    4  Occ=1.000000D+00  E=-1.135314D+00

 Vector    5  Occ=1.000000D+00  E=-8.102540D-01

 Vector    6  Occ=1.000000D+00  E=-5.694744D-01

 Vector    7  Occ=1.000000D+00  E=-4.633530D-01

 Vector    8  Occ=1.000000D+00  E=-4.543393D-01

 Vector    9  Occ=1.000000D+00  E=-3.784741D-01

 Vector   10  Occ=1.000000D+00  E=-3.304610D-01

 Vector   11  Occ=1.000000D+00  E=-2.756890D-01

 Vector   12  Occ=0.000000D+00  E=-1.655700D-01

 Vector   13  Occ=0.000000D+00  E=-3.542113D-02

 Vector   14  Occ=0.000000D+00  E= 9.426804D-02

 Vector   15  Occ=0.000000D+00  E= 1.350226D-01

 Vector   16  Occ=0.000000D+00  E= 1.952502D-01

 Vector   17  Occ=0.000000D+00  E= 2.894124D-01

 Vector   18  Occ=0.000000D+00  E= 5.259675D-01

 Vector   19  Occ=0.000000D+00  E= 5.584840D-01

 Vector   20  Occ=0.000000D+00  E= 5.820491D-01

 Vector   21  Occ=0.000000D+00  E= 6.699647D-01

 Vector   22  Occ=0.000000D+00  E= 6.788814D-01

 Vector   23  Occ=0.000000D+00  E= 7.781431D-01

 Vector   24  Occ=0.000000D+00  E= 8.354026D-01

 Vector   25  Occ=0.000000D+00  E= 8.694658D-01

 Vector   26  Occ=0.000000D+00  E= 9.117183D-01

 Vector   27  Occ=0.000000D+00  E= 1.080751D+00

 Vector   28  Occ=0.000000D+00  E= 1.123036D+00

 Vector   29  Occ=0.000000D+00  E= 1.204448D+00

 Vector   30  Occ=0.000000D+00  E= 1.331224D+00

 Vector   31  Occ=0.000000D+00  E= 1.420359D+00

 Vector   32  Occ=0.000000D+00  E= 1.473231D+00

 Vector   33  Occ=0.000000D+00  E= 1.657746D+00

 Vector   34  Occ=0.000000D+00  E= 1.698429D+00

 Vector   35  Occ=0.000000D+00  E= 1.717186D+00

 Vector   36  Occ=0.000000D+00  E= 1.769824D+00

 Vector   37  Occ=0.000000D+00  E= 1.829391D+00

 Vector   38  Occ=0.000000D+00  E= 1.885536D+00

 Vector   39  Occ=0.000000D+00  E= 2.057412D+00

 Vector   40  Occ=0.000000D+00  E= 2.136972D+00

 Vector   41  Occ=0.000000D+00  E= 2.238642D+00

 Vector   42  Occ=0.000000D+00  E= 2.380188D+00

 Vector   43  Occ=0.000000D+00  E= 2.518616D+00

 Vector   44  Occ=0.000000D+00  E= 2.601308D+00

 Vector   45  Occ=0.000000D+00  E= 2.780390D+00

 Vector   46  Occ=0.000000D+00  E= 2.991758D+00

 Vector   47  Occ=0.000000D+00  E= 3.661186D+00

 Vector   48  Occ=0.000000D+00  E= 4.102924D+00

 Vector   49  Occ=0.000000D+00  E= 4.271447D+00

     Multipole analysis of the density
     ---------------------------------

     L   x y z        total         alpha         beta         nuclear
     -   - - -        -----         -----         ----         -------
     0   0 0 0     -0.000000    -13.000000    -11.000000     24.000000

     1   1 0 0      0.273680      0.031531      0.242149     -0.000000
     1   0 1 0      0.285240     -0.993147      1.278387     -0.000000
     1   0 0 1      0.493414      0.206514      0.286900      0.000000

     2   2 0 0    -11.312167    -15.023861    -12.104128     15.815822
     2   1 1 0     -0.164141      1.149635      0.335164     -1.648939
     2   1 0 1     -0.765442     -0.054600      0.251707     -0.962548
     2   0 2 0    -12.882552    -55.387931    -47.359005     89.864384
     2   0 1 1      1.969566     -0.022153     -0.320354      2.312073

 Total times  cpu:       25.7s     wall:       25.9s
