============================== echo of input deck ==============================
echo
start dft_s12gh_dat

title "(CAM-)S12g/(CAM-)S12h gradients/frequencies"

#memory stack 1200 mb heap 100 mb global 600 mb
basis
 * library def2-tzvp
end

geometry
N       0.00000000    0.00000000   -0.11267328
H      -0.57588908    0.73807645    0.26743392
H      -0.35124842   -0.86777280    0.26743392
H       0.92713750    0.12969634    0.26743392
end
dft
  mult 1
  iterations 99
  tolerances tight
  convergence damp 80 nolevelshifting diison 0.001
  grid fine
  direct
  xc s12g
end
task dft gradient
task dft frequencies
geometry
O        1.908528      0.451975     -0.009947
H        0.952456      0.234061     -0.004537
H        2.343989     -0.411819      0.011755
N       -1.013936     -0.073304      0.000334
H       -1.397081     -0.063434     -0.941859
H       -1.408753     -0.884783      0.470021
H       -1.385203      0.747304      0.474233
end
task dft gradient

geometry
N       0.00000000    0.00000000   -0.11267328
H      -0.57588908    0.73807645    0.26743392
H      -0.35124842   -0.86777280    0.26743392
H       0.92713750    0.12969634    0.26743392
end
dft
 xc s12h
end
task dft gradient
task dft frequencies
geometry
O        1.908528      0.451975     -0.009947
H        0.952456      0.234061     -0.004537
H        2.343989     -0.411819      0.011755
N       -1.013936     -0.073304      0.000334
H       -1.397081     -0.063434     -0.941859
H       -1.408753     -0.884783      0.470021
H       -1.385203      0.747304      0.474233
end
task dft gradient

geometry
N       0.00000000    0.00000000   -0.11267328
H      -0.57588908    0.73807645    0.26743392
H      -0.35124842   -0.86777280    0.26743392
H       0.92713750    0.12969634    0.26743392
end
dft
 xc cam-s12g
end
task dft gradient
geometry
O        1.908528      0.451975     -0.009947
H        0.952456      0.234061     -0.004537
H        2.343989     -0.411819      0.011755
N       -1.013936     -0.073304      0.000334
H       -1.397081     -0.063434     -0.941859
H       -1.408753     -0.884783      0.470021
H       -1.385203      0.747304      0.474233
end
task dft gradient

geometry
N       0.00000000    0.00000000   -0.11267328
H      -0.57588908    0.73807645    0.26743392
H      -0.35124842   -0.86777280    0.26743392
H       0.92713750    0.12969634    0.26743392
end
dft
 xc cam-s12h
end
task dft gradient
geometry
O        1.908528      0.451975     -0.009947
H        0.952456      0.234061     -0.004537
H        2.343989     -0.411819      0.011755
N       -1.013936     -0.073304      0.000334
H       -1.397081     -0.063434     -0.941859
H       -1.408753     -0.884783      0.470021
H       -1.385203      0.747304      0.474233
end
task dft gradient

================================================================================

         Total DFT energy =      -56.577999417131
         Total DFT energy =      -56.577999441607
 Zero-Point correction to Energy  =   21.507 kcal/mol  (  0.034274 au)
 Thermal correction to Energy     =   23.313 kcal/mol  (  0.037151 au)
 Thermal correction to Enthalpy   =   23.905 kcal/mol  (  0.038095 au)
 Total Entropy                    =   45.955 cal/mol-K
   - Translational                =   34.425 cal/mol-K (mol. weight =  17.0265)
   - Rotational                   =   11.413 cal/mol-K (symmetry #  =        3)
   - Vibrational                  =    0.117 cal/mol-K
   - Translational                  =    2.979 cal/mol-K
   - Rotational                     =    2.979 cal/mol-K
   - Vibrational                    =    0.500 cal/mol-K
 P.Frequency        0.00        0.00        0.00        0.00        0.00        0.00
 P.Frequency      976.82     1624.23     1624.24     3515.74     3655.33     3655.33
         Total DFT energy =     -133.040403196339
         Total DFT energy =      -56.574515677194
         Total DFT energy =      -56.574515713888
 Zero-Point correction to Energy  =   21.805 kcal/mol  (  0.034749 au)
 Thermal correction to Energy     =   23.604 kcal/mol  (  0.037615 au)
 Thermal correction to Enthalpy   =   24.196 kcal/mol  (  0.038559 au)
 Total Entropy                    =   45.925 cal/mol-K
   - Translational                =   34.425 cal/mol-K (mol. weight =  17.0265)
   - Rotational                   =   11.413 cal/mol-K (symmetry #  =        3)
   - Vibrational                  =    0.087 cal/mol-K
   - Translational                  =    2.979 cal/mol-K
   - Rotational                     =    2.979 cal/mol-K
   - Vibrational                    =    0.402 cal/mol-K
 P.Frequency       -0.00       -0.00        0.00        0.00        0.00        0.00
 P.Frequency     1052.54     1678.68     1678.69     3528.51     3660.98     3660.98

 Normal Eigenvalue ||           Projected Infra Red Intensities
  Mode   [cm**-1]  || [atomic units] [(debye/angs)**2] [(KM/mol)] [arbitrary]
 ------ ---------- || -------------- ----------------- ---------- -----------
    1       -0.000 ||    0.067244           1.551        65.552      21.549
    2       -0.000 ||    0.019751           0.456        19.255       6.330
    3        0.000 ||    0.000173           0.004         0.169       0.056
    4        0.000 ||    0.061164           1.411        59.626      19.601
    5        0.000 ||    0.000104           0.002         0.102       0.033
    6        0.000 ||    0.000015           0.000         0.015       0.005
    7     1052.539 ||    0.176162           4.064       171.731      56.453
    8     1678.683 ||    0.022018           0.508        21.464       7.056
    9     1678.686 ||    0.022018           0.508        21.464       7.056
   10     3528.512 ||    0.001011           0.023         0.986       0.324
   11     3660.976 ||    0.002401           0.055         2.340       0.769
   12     3660.979 ||    0.002401           0.055         2.340       0.769
 ----------------------------------------------------------------------------

         Total DFT energy =     -133.029436675147
         Total DFT energy =      -56.553541398918
         Total DFT energy =     -132.985938958297
         Total DFT energy =      -56.577787561593

 Output coordinates in angstroms (scale by  1.889725989 to convert to a.u.)

  No.       Tag          Charge          X              Y              Z
 ---- ---------------- ---------- -------------- -------------- --------------
    1 O                    8.0000     0.07478265    -1.57490848     0.00004430
    2 H                    1.0000     0.00626427    -0.59669880     0.00075864
    3 H                    1.0000    -0.84592226    -1.87245777    -0.00200952
    4 N                    7.0000     0.00461194     1.39357523    -0.00024054
    5 H                    1.0000     0.09842187     1.76789796    -0.94136081
    6 H                    1.0000    -0.74885031     1.90972322     0.44794514
    7 H                    1.0000     0.85954165     1.63577660     0.49599592

         Total DFT energy =     -133.037201479264

                       DFT Final Molecular Orbital Analysis
                       ------------------------------------

 Vector    1  Occ=2.000000D+00  E=-1.920587D+01

 Vector   23  Occ=0.000000D+00  E= 4.816329D-01

 Vector   24  Occ=0.000000D+00  E= 5.131077D-01

 Vector   25  Occ=0.000000D+00  E= 5.187012D-01

 Vector   26  Occ=0.000000D+00  E= 5.997269D-01

 Vector   27  Occ=0.000000D+00  E= 6.620920D-01

 Vector   28  Occ=0.000000D+00  E= 8.195271D-01

 Vector   29  Occ=0.000000D+00  E= 9.008141D-01

 Vector   30  Occ=0.000000D+00  E= 9.167600D-01

 Vector   31  Occ=0.000000D+00  E= 1.175883D+00

 Vector   32  Occ=0.000000D+00  E= 1.222852D+00

 Vector   33  Occ=0.000000D+00  E= 1.233059D+00

 Vector   34  Occ=0.000000D+00  E= 1.274620D+00

 Vector   35  Occ=0.000000D+00  E= 1.294134D+00

 Vector   36  Occ=0.000000D+00  E= 1.368745D+00

 Vector   37  Occ=0.000000D+00  E= 1.567208D+00

 Vector   38  Occ=0.000000D+00  E= 1.613005D+00

 Vector   39  Occ=0.000000D+00  E= 1.634617D+00

 Vector   40  Occ=0.000000D+00  E= 1.650250D+00

 Vector   41  Occ=0.000000D+00  E= 1.670324D+00

 Vector   42  Occ=0.000000D+00  E= 1.674866D+00

 Vector   43  Occ=0.000000D+00  E= 1.784883D+00

 Vector   44  Occ=0.000000D+00  E= 1.817704D+00

 Vector   45  Occ=0.000000D+00  E= 1.866157D+00

 Vector   46  Occ=0.000000D+00  E= 1.908594D+00

 Vector   47  Occ=0.000000D+00  E= 1.958751D+00

 Vector   48  Occ=0.000000D+00  E= 2.025330D+00

 Vector   49  Occ=0.000000D+00  E= 2.142943D+00

 Vector   50  Occ=0.000000D+00  E= 2.176382D+00

 Vector   51  Occ=0.000000D+00  E= 2.219540D+00

 Vector   52  Occ=0.000000D+00  E= 2.268833D+00

 Vector   53  Occ=0.000000D+00  E= 2.273177D+00

 Vector   54  Occ=0.000000D+00  E= 2.328825D+00

 Vector   55  Occ=0.000000D+00  E= 2.342069D+00

 Vector   56  Occ=0.000000D+00  E= 2.348527D+00

 Vector   57  Occ=0.000000D+00  E= 2.371571D+00

 Vector   58  Occ=0.000000D+00  E= 2.392517D+00

 Vector   59  Occ=0.000000D+00  E= 2.498763D+00

 Vector   60  Occ=0.000000D+00  E= 2.547425D+00

 Vector   61  Occ=0.000000D+00  E= 2.568714D+00

 Vector   62  Occ=0.000000D+00  E= 3.042514D+00

 Vector   63  Occ=0.000000D+00  E= 3.161814D+00

 Vector   64  Occ=0.000000D+00  E= 3.162960D+00

 Vector   65  Occ=0.000000D+00  E= 3.411575D+00

 Vector   66  Occ=0.000000D+00  E= 3.773355D+00

 Vector   67  Occ=0.000000D+00  E= 4.066609D+00

 Vector   68  Occ=0.000000D+00  E= 4.288272D+00

 Vector   69  Occ=0.000000D+00  E= 4.292182D+00

 Vector   70  Occ=0.000000D+00  E= 4.417773D+00

 Vector   71  Occ=0.000000D+00  E= 4.509818D+00

 Vector   72  Occ=0.000000D+00  E= 4.512334D+00

 Vector   73  Occ=0.000000D+00  E= 4.536446D+00

 Vector   74  Occ=0.000000D+00  E= 4.611545D+00

 Vector   75  Occ=0.000000D+00  E= 4.616111D+00

 Vector   76  Occ=0.000000D+00  E= 4.674828D+00

 Vector   77  Occ=0.000000D+00  E= 4.790788D+00

 Vector   78  Occ=0.000000D+00  E= 4.923730D+00

 Vector   79  Occ=0.000000D+00  E= 4.925769D+00

 Vector   80  Occ=0.000000D+00  E= 5.176196D+00

 Vector   81  Occ=0.000000D+00  E= 5.278173D+00

 Vector   82  Occ=0.000000D+00  E= 5.418627D+00

 Vector   83  Occ=0.000000D+00  E= 5.429602D+00

 Vector   84  Occ=0.000000D+00  E= 5.438800D+00

 Vector   85  Occ=0.000000D+00  E= 5.480125D+00

 Vector   86  Occ=0.000000D+00  E= 5.520454D+00

 Vector   87  Occ=0.000000D+00  E= 5.764109D+00

 Vector   88  Occ=0.000000D+00  E= 5.774151D+00

 Vector   89  Occ=0.000000D+00  E= 5.830101D+00

 Vector   90  Occ=0.000000D+00  E= 5.909396D+00

 Vector   91  Occ=0.000000D+00  E= 6.144699D+00

 Vector   92  Occ=0.000000D+00  E= 6.340992D+00

 Vector   93  Occ=0.000000D+00  E= 6.399282D+00

 Vector   94  Occ=0.000000D+00  E= 6.441172D+00

 Vector   95  Occ=0.000000D+00  E= 6.453986D+00

 Vector   96  Occ=0.000000D+00  E= 6.531861D+00

 Vector   97  Occ=0.000000D+00  E= 6.995516D+00

 Vector   98  Occ=0.000000D+00  E= 7.178127D+00

 Vector   99  Occ=0.000000D+00  E= 1.190382D+01

 Vector  100  Occ=0.000000D+00  E= 1.656668D+01

 Vector  101  Occ=0.000000D+00  E= 5.168331D+01

 Vector  102  Occ=0.000000D+00  E= 7.178401D+01

     Multipole analysis of the density
     ---------------------------------

     L   x y z        total         alpha         beta         nuclear
     -   - - -        -----         -----         ----         -------
     0   0 0 0     -0.000000    -10.000000    -10.000000     20.000000

     1   1 0 0     -0.542742     -0.271371     -0.271371      0.000000
     1   0 1 0      1.427114      0.713557      0.713557      0.000000
     1   0 0 1      0.000740      0.000370      0.000370      0.000000

     2   2 0 0     -8.811163     -8.101254     -8.101254      7.391345
     2   1 1 0      2.579470     -0.197471     -0.197471      2.974411
     2   1 0 1      0.003290      0.001720      0.001720     -0.000149
     2   0 2 0     -9.534162    -88.236202    -88.236202    166.938243
     2   0 1 1      0.008039     -0.001275     -0.001275      0.010589

 Total times  cpu:       59.8s     wall:       60.5s
