============================== echo of input deck ==============================
Title "QM/MM of Lys monomer"

memory total 1000 Mb

start lys

echo

#task shell "cp lys0.rst lys_em.rst"
prepare
read lys0.rst
write lys_em.rst
end

task prepare

# A basis set must be defined for the QM part

basis "ao basis"
  * library "6-31G*"
end

charge 1.0

dft
 iterations 100
end

md
 system lys_em
 cutoff 1.9   qmmm 1.0
end

qmmm
 eatoms -84
 link_atoms halogen
 region qm
 method bfgs
 maxiter 5
end

task qmmm dft optimize ignore

================================================================================

@ QM/MM Multiple Region Optimization
@ region1:  qm        with bfgs      maxiter =  5
@ ncycle =  1
@ Optimizing qm         region with bfgs
         Total DFT energy =      -84.981422608465
@ Step       Energy      Delta E   Gmax     Grms     Xrms     Xmax   Walltime
@ ---- ---------------- -------- -------- -------- -------- -------- --------
@    0      -0.92752926  0.0D+00  0.12896  0.05414  0.00000  0.00000      0.5
         Total DFT energy =      -85.025956955785
         Total DFT energy =    -85.025956955785
@    1      -0.95664137 -2.9D-02  0.10835  0.03464  0.11087  0.30000      1.0
         Total DFT energy =      -85.017649237412
         Total DFT energy =      -85.031570042318
@    2      -0.96865546 -1.2D-02  0.05661  0.02221  0.04707  0.13768      1.7
         Total DFT energy =      -85.028970165287
         Total DFT energy =      -85.031848457208
@    3      -0.97322390 -4.6D-03  0.02133  0.00829  0.05811  0.15537      2.4
         Total DFT energy =      -85.028132287143

 Vector   29  Occ=0.000000D+00  E= 1.689731D+00

 Vector   30  Occ=0.000000D+00  E= 1.734902D+00

 Vector   31  Occ=0.000000D+00  E= 1.831988D+00

 Vector   32  Occ=0.000000D+00  E= 1.838582D+00

 Vector   33  Occ=0.000000D+00  E= 1.862126D+00

 Vector   34  Occ=0.000000D+00  E= 2.576973D+00

 Vector   35  Occ=0.000000D+00  E= 3.221265D+00

 Vector   36  Occ=0.000000D+00  E= 1.414750D+01

         Total DFT energy =      -85.031458917141

 Vector    1  Occ=2.000000D+00  E=-1.440623D+01

 Vector    2  Occ=2.000000D+00  E=-4.955526D+00

 Vector    3  Occ=2.000000D+00  E=-1.328209D+00

 Vector    4  Occ=2.000000D+00  E=-9.765862D-01

 Vector    5  Occ=2.000000D+00  E=-9.461010D-01

 Vector    6  Occ=2.000000D+00  E=-9.412137D-01

 Vector    7  Occ=2.000000D+00  E=-7.075532D-01

 Vector    8  Occ=2.000000D+00  E=-7.014924D-01

 Vector    9  Occ=0.000000D+00  E=-6.075471D-01

 Vector   10  Occ=0.000000D+00  E=-3.562487D-01

 Vector   11  Occ=0.000000D+00  E=-3.004254D-01

 Vector   12  Occ=0.000000D+00  E=-2.946562D-01

 Vector   13  Occ=0.000000D+00  E= 3.736871D-02

 Vector   14  Occ=0.000000D+00  E= 1.362741D-01

 Vector   15  Occ=0.000000D+00  E= 2.236380D-01

 Vector   16  Occ=0.000000D+00  E= 2.289686D-01

 Vector   17  Occ=0.000000D+00  E= 3.596469D-01

 Vector   18  Occ=0.000000D+00  E= 3.626338D-01

 Vector   19  Occ=0.000000D+00  E= 4.211933D-01

 Vector   20  Occ=0.000000D+00  E= 7.864385D-01

 Vector   21  Occ=0.000000D+00  E= 8.459883D-01

 Vector   22  Occ=0.000000D+00  E= 8.581738D-01

 Vector   23  Occ=0.000000D+00  E= 8.944842D-01

 Vector   24  Occ=0.000000D+00  E= 1.013423D+00

 Vector   25  Occ=0.000000D+00  E= 1.017617D+00

 Vector   26  Occ=0.000000D+00  E= 1.101024D+00

 Vector   27  Occ=0.000000D+00  E= 1.114650D+00

 Vector   28  Occ=0.000000D+00  E= 1.350186D+00

 Vector   29  Occ=0.000000D+00  E= 1.676664D+00

 Vector   30  Occ=0.000000D+00  E= 1.706898D+00

 Vector   31  Occ=0.000000D+00  E= 1.848541D+00

 Vector   32  Occ=0.000000D+00  E= 1.858199D+00

 Vector   33  Occ=0.000000D+00  E= 1.875949D+00

 Vector   34  Occ=0.000000D+00  E= 2.583477D+00

 Vector   35  Occ=0.000000D+00  E= 3.215560D+00

 Vector   36  Occ=0.000000D+00  E= 1.417625D+01

@    4      -0.97408814 -8.6D-04  0.00422  0.00174  0.01592  0.04088      3.1
         Total DFT energy =      -85.030806418751

                       DFT Final Molecular Orbital Analysis
                       ------------------------------------

 Vector    1  Occ=2.000000D+00  E=-1.440642D+01

 Vector    2  Occ=2.000000D+00  E=-4.956405D+00

 Vector    3  Occ=2.000000D+00  E=-1.328866D+00

 Vector    4  Occ=2.000000D+00  E=-9.780418D-01

 Vector    5  Occ=2.000000D+00  E=-9.452525D-01

 Vector    6  Occ=2.000000D+00  E=-9.428057D-01

 Vector    7  Occ=2.000000D+00  E=-7.081795D-01

 Vector    8  Occ=2.000000D+00  E=-7.027167D-01

 Vector    9  Occ=0.000000D+00  E=-6.083001D-01

 Vector   10  Occ=0.000000D+00  E=-3.561371D-01

 Vector   11  Occ=0.000000D+00  E=-3.013301D-01

 Vector   12  Occ=0.000000D+00  E=-2.931669D-01

 Vector   13  Occ=0.000000D+00  E= 3.667373D-02

 Vector   14  Occ=0.000000D+00  E= 1.370657D-01

 Vector   15  Occ=0.000000D+00  E= 2.240349D-01

 Vector   16  Occ=0.000000D+00  E= 2.263910D-01

 Vector   17  Occ=0.000000D+00  E= 3.589201D-01

 Vector   18  Occ=0.000000D+00  E= 3.637583D-01

 Vector   19  Occ=0.000000D+00  E= 4.220041D-01

 Vector   20  Occ=0.000000D+00  E= 7.874681D-01

 Vector   21  Occ=0.000000D+00  E= 8.453261D-01

 Vector   22  Occ=0.000000D+00  E= 8.578380D-01

 Vector   23  Occ=0.000000D+00  E= 8.940066D-01

 Vector   24  Occ=0.000000D+00  E= 1.012604D+00

 Vector   25  Occ=0.000000D+00  E= 1.016452D+00

 Vector   26  Occ=0.000000D+00  E= 1.099893D+00

 Vector   27  Occ=0.000000D+00  E= 1.114340D+00

 Vector   28  Occ=0.000000D+00  E= 1.349248D+00

 Vector   29  Occ=0.000000D+00  E= 1.673465D+00

 Vector   30  Occ=0.000000D+00  E= 1.704006D+00

 Vector   31  Occ=0.000000D+00  E= 1.846672D+00

 Vector   32  Occ=0.000000D+00  E= 1.858796D+00

 Vector   33  Occ=0.000000D+00  E= 1.880524D+00

 Vector   34  Occ=0.000000D+00  E= 2.581977D+00

 Vector   35  Occ=0.000000D+00  E= 3.215798D+00

 Vector   36  Occ=0.000000D+00  E= 1.417418D+01

     Multipole analysis of the density
     ---------------------------------

     L   x y z        total         alpha         beta         nuclear
     -   - - -        -----         -----         ----         -------
     0   0 0 0      1.000000     -8.000000     -8.000000     17.000000

     1   1 0 0     -0.202811     -0.737600     -0.737600      1.272390
     1   0 1 0      5.708333    -42.747025    -42.747025     91.202383
     1   0 0 1      3.088174    -20.097225    -20.097225     43.282624

     2   2 0 0     -6.865632     -7.135776     -7.135776      7.405920
     2   1 1 0     -1.544879     -1.862081     -1.862081      2.179282
     2   1 0 1     -0.978623      0.664001      0.664001     -2.306625
     2   0 2 0     26.898850   -238.651826   -238.651826    504.202501
     2   0 1 1     18.910799   -112.488729   -112.488729    243.888258

         Total DFT energy =    -85.030806418751
@    5      -0.97424575 -1.6D-04  0.00245  0.00148  0.01532  0.03090      3.5
@    5      -0.97424575 -1.6D-04  0.00245  0.00148  0.01532  0.03090      3.5

 Output coordinates in angstroms (scale by  1.889725989 to convert to a.u.)

  No.       Tag          Charge          X              Y              Z
 ---- ---------------- ---------- -------------- -------------- --------------
    1 C                    6.0000     0.28618465     2.32593995     0.73012412
    2 N                    7.0000    -0.09624314     3.12987462     1.69352345
    3 H                    1.0000    -0.08266954     2.62582533     2.61602842
    4 H                    1.0000     0.50830149     3.98183071     1.78805518
    5 H                    1.0000    -1.08190285     3.46386838     1.53456311

         Total DFT energy =    -85.030806418751
@ QM/MM Energy
@ quantum energy                      -85.030806419 (-.223248E+06  kjoule/mol)
@ quantum energy adjusted              -1.030806419 (-.270638E+04  kjoule/mol)
@ quantum energy internal             -85.639998807 (-.224848E+06  kjoule/mol)
@ Bq-nuclear energy                     3.546604526 (0.931161E+04  kjoule/mol)
@ Bq-electron energy                   -2.937412138 (-.771218E+04  kjoule/mol)
@ classical energy                      0.056560667 (0.148500E+03  kjoule/mol)
@ total qmmm energy                    -0.974245751 (-.255788E+04  kjoule/mol)
@  OPTIMIZATION FINISHED
 Total times  cpu:        3.2s     wall:        3.5s
