============================== echo of input deck ==============================
echo
start acr-camb3lyp-cdfit

geometry units bohr
C         -3.4889915040            0.0757243564            0.0000000000
C         -1.1660674990           -0.8921396346            0.0000000000
C          1.0745076249            0.7531195619            0.0000000000
O          3.2306456355           -0.0048697519            0.0000000000
H         -5.1598072439           -1.1007803728            0.0000000000
H         -3.7843301456            2.1030589485            0.0000000000
H         -0.8202431053           -2.9101405740            0.0000000000
H          0.6573804135            2.8079130427            0.0000000000
end

basis spherical
 * library "cc-pVTZ"
end

basis "cd basis"
*  library "DGauss A2 DFT Coulomb Fitting"
end

set int:cando_txs f

dft
 xc xcamb88 1.00 lyp 0.81 vwn_5 0.19 hfexch 1.00
 cam 0.33 cam_alpha 0.19 cam_beta 0.81
# direct
# odft
# mult 1
end
#task dft energy

#property
# center com
# dipole
#end
#task dft property

tddft
 nroots 5
 notriplet
 algorithm 3
end
task tddft energy
================================================================================

 Output coordinates in a.u. (scale by  1.000000000 to convert to a.u.)

  No.       Tag          Charge          X              Y              Z
 ---- ---------------- ---------- -------------- -------------- --------------
    1 C                    6.0000     0.25763286     3.32137763     0.00000000
    2 C                    6.0000    -0.84664484     1.06011528     0.00000000
    3 C                    6.0000     0.66247352    -1.27432608     0.00000000
    4 O                    8.0000    -0.22238340    -3.38157718     0.00000000
    5 H                    1.0000    -0.81743964     5.05919457     0.00000000
    6 H                    1.0000     2.29894170     3.49564380     0.00000000
    7 H                    1.0000    -2.88163854     0.83489769     0.00000000
    8 H                    1.0000     2.73843448    -0.98011961     0.00000000

         Total DFT energy =     -191.750390600694

                       DFT Final Molecular Orbital Analysis
                       ------------------------------------

 Vector    1  Occ=2.000000D+00  E=-1.926032D+01  Symmetry=a'

 Vector   97  Occ=0.000000D+00  E= 3.003525D+00  Symmetry=a'

 Vector   98  Occ=0.000000D+00  E= 3.020250D+00  Symmetry=a'

 Vector   99  Occ=0.000000D+00  E= 3.044978D+00  Symmetry=a"

 Vector  100  Occ=0.000000D+00  E= 3.064008D+00  Symmetry=a'

 Vector  101  Occ=0.000000D+00  E= 3.065149D+00  Symmetry=a"

 Vector  102  Occ=0.000000D+00  E= 3.113998D+00  Symmetry=a'

 Vector  103  Occ=0.000000D+00  E= 3.170703D+00  Symmetry=a"

 Vector  104  Occ=0.000000D+00  E= 3.176797D+00  Symmetry=a'

 Vector  105  Occ=0.000000D+00  E= 3.201589D+00  Symmetry=a'

 Vector  106  Occ=0.000000D+00  E= 3.240805D+00  Symmetry=a"

 Vector  107  Occ=0.000000D+00  E= 3.271598D+00  Symmetry=a"

 Vector  108  Occ=0.000000D+00  E= 3.273316D+00  Symmetry=a'

 Vector  109  Occ=0.000000D+00  E= 3.335055D+00  Symmetry=a'

 Vector  110  Occ=0.000000D+00  E= 3.362696D+00  Symmetry=a"

 Vector  111  Occ=0.000000D+00  E= 3.407943D+00  Symmetry=a"

 Vector  112  Occ=0.000000D+00  E= 3.408841D+00  Symmetry=a'

 Vector  113  Occ=0.000000D+00  E= 3.469806D+00  Symmetry=a'

 Vector  114  Occ=0.000000D+00  E= 3.504860D+00  Symmetry=a'

 Vector  115  Occ=0.000000D+00  E= 3.559154D+00  Symmetry=a'

 Vector  116  Occ=0.000000D+00  E= 3.612513D+00  Symmetry=a'

 Vector  117  Occ=0.000000D+00  E= 3.622285D+00  Symmetry=a"

 Vector  118  Occ=0.000000D+00  E= 3.698054D+00  Symmetry=a'

 Vector  119  Occ=0.000000D+00  E= 3.725990D+00  Symmetry=a"

 Vector  120  Occ=0.000000D+00  E= 3.728873D+00  Symmetry=a'

 Vector  121  Occ=0.000000D+00  E= 3.805914D+00  Symmetry=a'

 Vector  122  Occ=0.000000D+00  E= 3.823515D+00  Symmetry=a"

 Vector  123  Occ=0.000000D+00  E= 3.859037D+00  Symmetry=a'

 Vector  124  Occ=0.000000D+00  E= 3.918244D+00  Symmetry=a"

 Vector  125  Occ=0.000000D+00  E= 3.949374D+00  Symmetry=a'

 Vector  126  Occ=0.000000D+00  E= 3.985265D+00  Symmetry=a"

 Vector  127  Occ=0.000000D+00  E= 3.994389D+00  Symmetry=a'

 Vector  128  Occ=0.000000D+00  E= 4.014285D+00  Symmetry=a'

 Vector  129  Occ=0.000000D+00  E= 4.058224D+00  Symmetry=a"

 Vector  130  Occ=0.000000D+00  E= 4.091474D+00  Symmetry=a"

 Vector  131  Occ=0.000000D+00  E= 4.118910D+00  Symmetry=a'

 Vector  132  Occ=0.000000D+00  E= 4.183458D+00  Symmetry=a"

 Vector  133  Occ=0.000000D+00  E= 4.243515D+00  Symmetry=a'

 Vector  134  Occ=0.000000D+00  E= 4.246106D+00  Symmetry=a"

 Vector  135  Occ=0.000000D+00  E= 4.301659D+00  Symmetry=a'

 Vector  136  Occ=0.000000D+00  E= 4.353545D+00  Symmetry=a'

 Vector  137  Occ=0.000000D+00  E= 4.381821D+00  Symmetry=a"

 Vector  138  Occ=0.000000D+00  E= 4.433596D+00  Symmetry=a'

 Vector  139  Occ=0.000000D+00  E= 4.480151D+00  Symmetry=a'

 Vector  140  Occ=0.000000D+00  E= 4.516971D+00  Symmetry=a'

 Vector  141  Occ=0.000000D+00  E= 4.581225D+00  Symmetry=a"

 Vector  142  Occ=0.000000D+00  E= 4.606363D+00  Symmetry=a'

 Vector  143  Occ=0.000000D+00  E= 4.756052D+00  Symmetry=a'

 Vector  144  Occ=0.000000D+00  E= 4.763038D+00  Symmetry=a"

 Vector  145  Occ=0.000000D+00  E= 4.828925D+00  Symmetry=a'

 Vector  146  Occ=0.000000D+00  E= 4.871612D+00  Symmetry=a"

 Vector  147  Occ=0.000000D+00  E= 4.958364D+00  Symmetry=a'

 Vector  148  Occ=0.000000D+00  E= 4.976773D+00  Symmetry=a'

 Vector  149  Occ=0.000000D+00  E= 5.033328D+00  Symmetry=a'

 Vector  150  Occ=0.000000D+00  E= 5.064938D+00  Symmetry=a"

 Vector  151  Occ=0.000000D+00  E= 5.152293D+00  Symmetry=a'

 Vector  152  Occ=0.000000D+00  E= 5.215240D+00  Symmetry=a'

 Vector  153  Occ=0.000000D+00  E= 5.231648D+00  Symmetry=a"

 Vector  154  Occ=0.000000D+00  E= 5.305578D+00  Symmetry=a'

 Vector  155  Occ=0.000000D+00  E= 5.365880D+00  Symmetry=a"

 Vector  156  Occ=0.000000D+00  E= 5.438866D+00  Symmetry=a'

 Vector  157  Occ=0.000000D+00  E= 5.512447D+00  Symmetry=a'

 Vector  158  Occ=0.000000D+00  E= 5.554017D+00  Symmetry=a'

 Vector  159  Occ=0.000000D+00  E= 5.653646D+00  Symmetry=a'

 Vector  160  Occ=0.000000D+00  E= 5.786839D+00  Symmetry=a"

 Vector  161  Occ=0.000000D+00  E= 5.914929D+00  Symmetry=a'

 Vector  162  Occ=0.000000D+00  E= 6.028909D+00  Symmetry=a'

 Vector  163  Occ=0.000000D+00  E= 6.092026D+00  Symmetry=a'

 Vector  164  Occ=0.000000D+00  E= 6.258545D+00  Symmetry=a'

 Vector  165  Occ=0.000000D+00  E= 6.312666D+00  Symmetry=a"

 Vector  166  Occ=0.000000D+00  E= 6.467208D+00  Symmetry=a'

 Vector  167  Occ=0.000000D+00  E= 6.489838D+00  Symmetry=a"

 Vector  168  Occ=0.000000D+00  E= 6.571251D+00  Symmetry=a'

 Vector  169  Occ=0.000000D+00  E= 6.950746D+00  Symmetry=a"

 Vector  170  Occ=0.000000D+00  E= 7.057462D+00  Symmetry=a'

 Vector  171  Occ=0.000000D+00  E= 7.148477D+00  Symmetry=a'

 Vector  172  Occ=0.000000D+00  E= 7.241214D+00  Symmetry=a'

 Vector  173  Occ=0.000000D+00  E= 1.053700D+01  Symmetry=a'

 Vector  174  Occ=0.000000D+00  E= 1.119398D+01  Symmetry=a'

 Vector  175  Occ=0.000000D+00  E= 1.306235D+01  Symmetry=a'

 Vector  176  Occ=0.000000D+00  E= 1.425900D+01  Symmetry=a'

     Multipole analysis of the density
     ---------------------------------

     L   x y z        total         alpha         beta         nuclear
     -   - - -        -----         -----         ----         -------
     0   0 0 0     -0.000000    -15.000000    -15.000000     30.000000

     1   1 0 0      0.280028      0.140014      0.140014      0.000000
     1   0 1 0      1.283865      0.641932      0.641932     -0.000000
     1   0 0 1      0.000000      0.000000      0.000000      0.000000

     2   2 0 0    -16.163423    -22.823791    -22.823791     29.484160
     2   1 1 0     -0.621324     -0.065945     -0.065945     -0.489433
     2   1 0 1      0.000000      0.000000      0.000000      0.000000
     2   0 2 0    -20.145950   -116.887466   -116.887466    213.628982
     2   0 1 1      0.000000      0.000000      0.000000      0.000000

  Root   1 singlet a"             0.144573218 a.u.                3.9340 eV
     Dipole Oscillator Strength                    0.0002848617
  Root   2 singlet a'             0.245408410 a.u.                6.6779 eV
     Dipole Oscillator Strength                    0.4475650322
  Root   3 singlet a"             0.278912687 a.u.                7.5896 eV
     Dipole Oscillator Strength                    0.0000758165
  Root   4 singlet a"             0.300525948 a.u.                8.1777 eV
     Dipole Oscillator Strength                    0.0003000866
  Root   5 singlet a"             0.316868038 a.u.                8.6224 eV
     Dipole Oscillator Strength                    0.0027094595
 Total times  cpu:      582.7s     wall:      589.8s
