============================== echo of input deck ==============================
echo
start methane-plus-h-dat

geometry units angstrom
  symmetry c1
  C    8.77882    4.09466    8.18421
  H    9.37839    4.74587    7.64094
  H    8.17915    3.55170    7.53275
  H    9.37839    3.44344    8.72748
  H    8.478984    4.366134    8.509940
  H    7.920094    4.872164    9.117099
end

charge 0

basis
  H library cc-pvdz
  C library cc-pvdz
  bqH library H cc-pvdz
  bqC library C cc-pvdz
end

BSSE
  MON first 1 2 3 4 5
  MON second 6
      mult 2
END

scf
  doublet; rohf
end

TCE
  scf
  ccsd
END

task tce energy
================================================================================

         Total SCF energy =    -39.764100815364

 Vector    2  Occ=2.000000D+00  E=-1.133955D+00

 Vector    3  Occ=2.000000D+00  E=-7.207519D-01

 Vector    4  Occ=2.000000D+00  E=-5.884526D-01

 Vector    5  Occ=2.000000D+00  E=-5.883524D-01

 Vector    6  Occ=1.000000D+00  E=-7.677165D-02

 Vector    7  Occ=0.000000D+00  E= 2.061072D-01

 Vector    8  Occ=0.000000D+00  E= 2.607318D-01

 Vector    9  Occ=0.000000D+00  E= 2.607347D-01

 Vector   10  Occ=0.000000D+00  E= 4.184048D-01

 Vector   11  Occ=0.000000D+00  E= 5.631267D-01

 Vector   12  Occ=0.000000D+00  E= 5.632147D-01

 Vector   13  Occ=0.000000D+00  E= 5.683053D-01

 Vector   14  Occ=0.000000D+00  E= 6.420302D-01

 Vector   15  Occ=0.000000D+00  E= 8.660813D-01

 Vector   16  Occ=0.000000D+00  E= 8.661388D-01

 CCSD total energy / hartree       =       -39.958003501662560

 Output coordinates in angstroms (scale by  1.889725989 to convert to a.u.)

  No.       Tag          Charge          X              Y              Z
 ---- ---------------- ---------- -------------- -------------- --------------
    1 H                    1.0000    -0.80789945     0.73150327     0.87769273

         Total SCF energy =    -39.347337374504

 Vector    2  Occ=2.000000D+00  E=-1.059330D+00

 Vector    3  Occ=2.000000D+00  E=-6.570819D-01

 Vector    4  Occ=2.000000D+00  E=-5.577189D-01

 Vector    5  Occ=2.000000D+00  E=-5.576189D-01

 Vector    6  Occ=0.000000D+00  E= 2.006292D-01

 Vector    7  Occ=0.000000D+00  E= 2.790437D-01

 Vector    8  Occ=0.000000D+00  E= 2.790512D-01

 Vector    9  Occ=0.000000D+00  E= 2.938404D-01

 Vector   10  Occ=0.000000D+00  E= 5.759332D-01

 Vector   11  Occ=0.000000D+00  E= 5.965691D-01

 Vector   12  Occ=0.000000D+00  E= 5.966646D-01

 Vector   13  Occ=0.000000D+00  E= 8.952436D-01

 Vector   14  Occ=0.000000D+00  E= 8.953012D-01

 Vector   15  Occ=0.000000D+00  E= 9.508029D-01

 CCSD total energy / hartree       =       -39.530128622381689
         Total SCF energy =    -39.349858429888

 Vector    2  Occ=2.000000D+00  E=-1.059685D+00

 Vector    3  Occ=2.000000D+00  E=-6.573502D-01

 Vector    4  Occ=2.000000D+00  E=-5.576851D-01

 Vector    5  Occ=2.000000D+00  E=-5.575852D-01

 Vector    6  Occ=0.000000D+00  E= 1.867356D-01

 Vector    7  Occ=0.000000D+00  E= 2.661395D-01

 Vector    8  Occ=0.000000D+00  E= 2.789679D-01

 Vector    9  Occ=0.000000D+00  E= 2.789755D-01

 Vector   10  Occ=0.000000D+00  E= 4.361343D-01

 Vector   11  Occ=0.000000D+00  E= 5.951004D-01

 Vector   12  Occ=0.000000D+00  E= 5.951955D-01

 Vector   13  Occ=0.000000D+00  E= 6.213157D-01

 Vector   14  Occ=0.000000D+00  E= 8.948379D-01

 Vector   15  Occ=0.000000D+00  E= 8.948944D-01

 CCSD total energy / hartree       =       -39.534225580916939
         Total SCF energy =     -0.499278403420

 Vector    1  Occ=1.000000D+00  E=-1.866468D-01

 Vector    2  Occ=0.000000D+00  E= 6.365495D-01

 Vector    3  Occ=0.000000D+00  E= 1.508331D+00

 Vector    4  Occ=0.000000D+00  E= 1.508331D+00

 Vector    5  Occ=0.000000D+00  E= 1.508331D+00

 CCSD total energy / hartree       =        -0.499278403419572
         Total SCF energy =     -0.499307146950

 Vector    1  Occ=1.000000D+00  E=-1.869847D-01

 Vector    2  Occ=0.000000D+00  E= 1.434368D-01

 Vector    3  Occ=0.000000D+00  E= 2.443758D-01

 Vector    4  Occ=0.000000D+00  E= 2.444081D-01

 Vector    5  Occ=0.000000D+00  E= 3.367782D-01

 Vector    6  Occ=0.000000D+00  E= 4.751699D-01

 Vector    7  Occ=0.000000D+00  E= 4.942061D-01

 Vector    8  Occ=0.000000D+00  E= 4.942656D-01

 Vector    9  Occ=0.000000D+00  E= 5.938233D-01

 Vector   10  Occ=0.000000D+00  E= 7.377679D-01

 Vector   11  Occ=0.000000D+00  E= 1.369902D+00

       Multipole analysis of the density wrt the origin
       ------------------------------------------------

     L   x y z        total         open         nuclear
     -   - - -        -----         ----         -------
     0   0 0 0      0.000000     -1.000000      1.000000

     1   1 0 0      0.000208      1.526917     -1.526709
     1   0 1 0     -0.000187     -1.382528      1.382341
     1   0 0 1     -0.000228     -1.658826      1.658599

     2   2 0 0     -0.996622     -3.327461      2.330839
     2   1 1 0      0.001880      2.112312     -2.110431
     2   1 0 1      0.002258      2.534455     -2.532197
     2   0 2 0     -0.996244     -2.907110      1.910866
     2   0 1 1     -0.002043     -2.294791      2.292749

 CCSD total energy / hartree       =        -0.499307146949582
 Total times  cpu:       28.9s     wall:       57.0s
