============================== echo of input deck ==============================

echo
start cho_bp_props
title cho_bp_props

memory total 800 stack 400 heap 50 global 350 mb

geometry noautoz units angstrom nocenter
symmetry c1
  C    +10.00000000    +20.00000000    +30.00000000
  O    +11.18337200    +20.00000000    +30.00000000
  H     +9.36848179    +20.94387462    +30.00000000
end

basis
"*" library 6-311G**
end

charge 0

property
 efieldgradZ4 1 3
 shielding 2 1 2
 hyperfine 2 1 3
 gshift
# nbofile 2
# gshiftfile
# hypfile
# shldfile
# efgfile
end

relativistic
  zora on
  zora:cutoff_NMR 1d-8
  zora:cutoff 1d-30
# zora:do_NonRel
# zora:do_prntNMRCS
# zora:not_zora_scale
end

set dft:tol_rho 1d-30
set int:acc_std 1d-32
set int:cando_txs f
set dft:job_grid_acc 1d-20

dft
odft
mult 2
grid xfine
direct
xc becke88 perdew86
convergence energy 1e-8 diis 80 ncyds 80 damp 0
end

task dft property
================================================================================

 Output coordinates in angstroms (scale by  1.889725989 to convert to a.u.)

  No.       Tag          Charge          X              Y              Z
 ---- ---------------- ---------- -------------- -------------- --------------
    1 C                    6.0000    10.00000000    20.00000000    30.00000000
    2 O                    8.0000    11.18337200    20.00000000    30.00000000
    3 H                    1.0000     9.36848179    20.94387462    30.00000000

         Total DFT energy =     -113.991306613195

                    DFT Final Alpha Molecular Orbital Analysis
                    ------------------------------------------

 Vector    1  Occ=1.000000D+00  E=-1.884414D+01

 Vector    9  Occ=0.000000D+00  E=-9.292846D-02

 Vector   10  Occ=0.000000D+00  E= 4.479956D-02

 Vector   11  Occ=0.000000D+00  E= 1.648238D-01

 Vector   12  Occ=0.000000D+00  E= 3.118257D-01

 Vector   13  Occ=0.000000D+00  E= 3.498458D-01

 Vector   14  Occ=0.000000D+00  E= 3.532692D-01

 Vector   15  Occ=0.000000D+00  E= 5.143393D-01

 Vector   16  Occ=0.000000D+00  E= 5.570522D-01

 Vector   17  Occ=0.000000D+00  E= 6.666202D-01

 Vector   18  Occ=0.000000D+00  E= 7.540642D-01

 Vector   19  Occ=0.000000D+00  E= 7.843197D-01

 Vector   20  Occ=0.000000D+00  E= 1.014917D+00

 Vector   21  Occ=0.000000D+00  E= 1.095886D+00

 Vector   22  Occ=0.000000D+00  E= 1.155064D+00

 Vector   23  Occ=0.000000D+00  E= 1.280058D+00

 Vector   24  Occ=0.000000D+00  E= 1.378962D+00

 Vector   25  Occ=0.000000D+00  E= 1.519195D+00

 Vector   26  Occ=0.000000D+00  E= 1.685080D+00

 Vector   27  Occ=0.000000D+00  E= 1.956236D+00

 Vector   28  Occ=0.000000D+00  E= 2.107608D+00

 Vector   29  Occ=0.000000D+00  E= 2.324279D+00

 Vector   30  Occ=0.000000D+00  E= 2.455512D+00

 Vector   31  Occ=0.000000D+00  E= 2.501137D+00

 Vector   32  Occ=0.000000D+00  E= 2.699741D+00

 Vector   33  Occ=0.000000D+00  E= 2.711567D+00

 Vector   34  Occ=0.000000D+00  E= 2.995540D+00

 Vector   35  Occ=0.000000D+00  E= 3.192464D+00

 Vector   36  Occ=0.000000D+00  E= 3.243321D+00

 Vector   37  Occ=0.000000D+00  E= 3.366462D+00

 Vector   38  Occ=0.000000D+00  E= 3.594710D+00

 Vector   39  Occ=0.000000D+00  E= 4.661688D+00

 Vector   40  Occ=0.000000D+00  E= 4.709962D+00

 Vector   41  Occ=0.000000D+00  E= 5.224426D+00

 Vector   42  Occ=0.000000D+00  E= 6.235872D+00

 Vector   43  Occ=0.000000D+00  E= 2.590515D+01

 Vector   44  Occ=0.000000D+00  E= 5.451447D+01

 Vector    1  Occ=1.000000D+00  E=-1.883664D+01

 Vector    2  Occ=1.000000D+00  E=-9.995727D+00

 Vector    3  Occ=1.000000D+00  E=-1.012760D+00

 Vector    4  Occ=1.000000D+00  E=-5.376135D-01

 Vector    5  Occ=1.000000D+00  E=-4.299953D-01

 Vector    6  Occ=1.000000D+00  E=-3.891082D-01

 Vector    7  Occ=1.000000D+00  E=-3.500546D-01

 Vector    8  Occ=0.000000D+00  E=-1.170744D-01

 Vector    9  Occ=0.000000D+00  E=-7.649698D-02

 Vector   10  Occ=0.000000D+00  E= 6.156001D-02

 Vector   11  Occ=0.000000D+00  E= 1.737372D-01

 Vector   12  Occ=0.000000D+00  E= 3.394731D-01

 Vector   13  Occ=0.000000D+00  E= 3.643893D-01

 Vector   14  Occ=0.000000D+00  E= 3.877913D-01

 Vector   15  Occ=0.000000D+00  E= 5.277333D-01

 Vector   16  Occ=0.000000D+00  E= 5.694041D-01

 Vector   17  Occ=0.000000D+00  E= 6.748001D-01

 Vector   18  Occ=0.000000D+00  E= 7.585052D-01

 Vector   19  Occ=0.000000D+00  E= 8.056176D-01

 Vector   20  Occ=0.000000D+00  E= 1.039798D+00

 Vector   21  Occ=0.000000D+00  E= 1.118388D+00

 Vector   22  Occ=0.000000D+00  E= 1.182663D+00

 Vector   23  Occ=0.000000D+00  E= 1.309010D+00

 Vector   24  Occ=0.000000D+00  E= 1.405186D+00

 Vector   25  Occ=0.000000D+00  E= 1.544654D+00

 Vector   26  Occ=0.000000D+00  E= 1.711927D+00

 Vector   27  Occ=0.000000D+00  E= 1.991469D+00

 Vector   28  Occ=0.000000D+00  E= 2.140069D+00

 Vector   29  Occ=0.000000D+00  E= 2.355947D+00

 Vector   30  Occ=0.000000D+00  E= 2.469745D+00

 Vector   31  Occ=0.000000D+00  E= 2.560641D+00

 Vector   32  Occ=0.000000D+00  E= 2.722235D+00

 Vector   33  Occ=0.000000D+00  E= 2.735413D+00

 Vector   34  Occ=0.000000D+00  E= 3.009350D+00

 Vector   35  Occ=0.000000D+00  E= 3.198111D+00

 Vector   36  Occ=0.000000D+00  E= 3.263018D+00

 Vector   37  Occ=0.000000D+00  E= 3.388428D+00

 Vector   38  Occ=0.000000D+00  E= 3.607952D+00

 Vector   39  Occ=0.000000D+00  E= 4.667932D+00

 Vector   40  Occ=0.000000D+00  E= 4.747616D+00

 Vector   41  Occ=0.000000D+00  E= 5.235817D+00

 Vector   42  Occ=0.000000D+00  E= 6.253445D+00

 Vector   43  Occ=0.000000D+00  E= 2.591878D+01

 Vector   44  Occ=0.000000D+00  E= 5.452465D+01

     Multipole analysis of the density
     ---------------------------------

     L   x y z        total         alpha         beta         nuclear
     -   - - -        -----         -----         ----         -------
     0   0 0 0     -0.000000     -8.000000     -7.000000     15.000000

     1   1 0 0     -0.449782   -159.812022   -140.793252    300.155492
     1   0 1 0      0.372583   -303.027145   -265.301733    568.701461
     1   0 0 1     -0.000000   -453.534237   -396.842458    850.376695

     2   2 0 0    -26.591252  -3209.941525  -2845.716619   6029.066893
     2   1 1 0    -10.384336  -6051.797037  -5334.397746  11375.810447
     2   1 0 1    -25.498931  -9060.027928  -7981.820047  17016.349043
     2   0 2 0     19.818312 -11484.981152 -10059.593345  21564.392809
     2   0 1 1     21.122371 -17179.148146 -15040.427399  32240.697916

      Atom:    1  C
      Atom:    3  H
      Atom:    1  C
           isotropic =     -94.7112
      Atom:    2  O
           isotropic =    -373.5822
           isotropic =      -2.0783
 Total times  cpu:       31.4s     wall:       31.5s
