============================== echo of input deck ==============================
echo
title "M06-2X/6-31+G*  NH2 + CH3 TS single point"

start cnh5

geometry
C       -1.199577    -.011126    -.000030
N        1.400715     .129862     .000015
H       -1.426660    -.512932     .933057
H       -1.419907    -.591382    -.888143
H       -1.520237    1.022806    -.045783
H         .188926     .126896     .001001
H        1.570338    -.887667    -.000053
end

basis
* library 6-31+G*
end

dft
xc  m06-2x
mult 3
grid fine
end

task dft
================================================================================

 Output coordinates in angstroms (scale by  1.889725989 to convert to a.u.)

  No.       Tag          Charge          X              Y              Z
 ---- ---------------- ---------- -------------- -------------- --------------
    1 C                    6.0000     0.01894486     1.19947916    -0.00002200
    2 N                    7.0000     0.09471245    -1.40352975     0.00000423
    3 H                    1.0000    -0.47700421     1.43906203     0.93307063
    4 H                    1.0000    -0.55561339     1.43429021    -0.88812877
    5 H                    1.0000     1.06058897     1.49412331    -0.04578127
    6 H                    1.0000     0.12212079    -0.19204712     0.00099846
    7 H                    1.0000    -0.92674845    -1.54759517    -0.00005661

         Total DFT energy =      -95.642059906110

                    DFT Final Alpha Molecular Orbital Analysis
                    ------------------------------------------

 Vector    1  Occ=1.000000D+00  E=-1.480951D+01

 Vector   17  Occ=0.000000D+00  E= 1.551912D-01

 Vector   18  Occ=0.000000D+00  E= 2.003331D-01

 Vector   19  Occ=0.000000D+00  E= 2.272422D-01

 Vector   20  Occ=0.000000D+00  E= 2.285347D-01

 Vector   21  Occ=0.000000D+00  E= 2.786021D-01

 Vector   22  Occ=0.000000D+00  E= 2.892749D-01

 Vector   23  Occ=0.000000D+00  E= 3.559856D-01

 Vector   24  Occ=0.000000D+00  E= 6.549329D-01

 Vector   25  Occ=0.000000D+00  E= 6.600285D-01

 Vector   26  Occ=0.000000D+00  E= 6.938382D-01

 Vector   27  Occ=0.000000D+00  E= 9.027275D-01

 Vector   28  Occ=0.000000D+00  E= 9.252743D-01

 Vector   29  Occ=0.000000D+00  E= 9.461254D-01

 Vector   30  Occ=0.000000D+00  E= 9.924364D-01

 Vector   31  Occ=0.000000D+00  E= 1.004056D+00

 Vector   32  Occ=0.000000D+00  E= 1.012304D+00

 Vector   33  Occ=0.000000D+00  E= 1.066196D+00

 Vector   34  Occ=0.000000D+00  E= 1.137516D+00

 Vector   35  Occ=0.000000D+00  E= 1.214468D+00

 Vector   36  Occ=0.000000D+00  E= 1.421596D+00

 Vector   37  Occ=0.000000D+00  E= 1.678252D+00

 Vector   38  Occ=0.000000D+00  E= 1.685750D+00

 Vector   39  Occ=0.000000D+00  E= 1.713426D+00

 Vector   40  Occ=0.000000D+00  E= 1.722616D+00

 Vector   41  Occ=0.000000D+00  E= 1.731615D+00

 Vector   42  Occ=0.000000D+00  E= 1.910893D+00

 Vector   43  Occ=0.000000D+00  E= 2.260133D+00

 Vector   44  Occ=0.000000D+00  E= 2.295539D+00

 Vector   45  Occ=0.000000D+00  E= 2.314215D+00

 Vector   46  Occ=0.000000D+00  E= 2.464201D+00

 Vector   47  Occ=0.000000D+00  E= 3.740663D+00

 Vector   48  Occ=0.000000D+00  E= 4.243802D+00

 Vector    1  Occ=1.000000D+00  E=-1.479044D+01

 Vector    2  Occ=1.000000D+00  E=-1.055208D+01

 Vector    3  Occ=1.000000D+00  E=-8.715091D-01

 Vector    4  Occ=1.000000D+00  E=-7.661438D-01

 Vector    5  Occ=1.000000D+00  E=-4.955254D-01

 Vector    6  Occ=1.000000D+00  E=-4.790635D-01

 Vector    7  Occ=1.000000D+00  E=-4.756664D-01

 Vector    8  Occ=1.000000D+00  E=-3.716101D-01

 Vector    9  Occ=0.000000D+00  E=-6.236437D-02

 Vector   10  Occ=0.000000D+00  E=-6.068578D-02

 Vector   11  Occ=0.000000D+00  E= 2.842388D-02

 Vector   12  Occ=0.000000D+00  E= 6.303494D-02

 Vector   13  Occ=0.000000D+00  E= 7.044128D-02

 Vector   14  Occ=0.000000D+00  E= 7.140729D-02

 Vector   15  Occ=0.000000D+00  E= 1.062584D-01

 Vector   16  Occ=0.000000D+00  E= 1.469370D-01

 Vector   17  Occ=0.000000D+00  E= 1.606177D-01

 Vector   18  Occ=0.000000D+00  E= 1.932500D-01

 Vector   19  Occ=0.000000D+00  E= 2.317850D-01

 Vector   20  Occ=0.000000D+00  E= 2.342855D-01

 Vector   21  Occ=0.000000D+00  E= 2.683405D-01

 Vector   22  Occ=0.000000D+00  E= 2.930515D-01

 Vector   23  Occ=0.000000D+00  E= 3.969951D-01

 Vector   24  Occ=0.000000D+00  E= 6.672542D-01

 Vector   25  Occ=0.000000D+00  E= 6.742509D-01

 Vector   26  Occ=0.000000D+00  E= 7.392291D-01

 Vector   27  Occ=0.000000D+00  E= 9.472690D-01

 Vector   28  Occ=0.000000D+00  E= 9.719973D-01

 Vector   29  Occ=0.000000D+00  E= 9.846754D-01

 Vector   30  Occ=0.000000D+00  E= 9.947613D-01

 Vector   31  Occ=0.000000D+00  E= 1.018799D+00

 Vector   32  Occ=0.000000D+00  E= 1.023176D+00

 Vector   33  Occ=0.000000D+00  E= 1.079287D+00

 Vector   34  Occ=0.000000D+00  E= 1.141315D+00

 Vector   35  Occ=0.000000D+00  E= 1.241827D+00

 Vector   36  Occ=0.000000D+00  E= 1.441406D+00

 Vector   37  Occ=0.000000D+00  E= 1.721807D+00

 Vector   38  Occ=0.000000D+00  E= 1.730018D+00

 Vector   39  Occ=0.000000D+00  E= 1.775652D+00

 Vector   40  Occ=0.000000D+00  E= 1.777269D+00

 Vector   41  Occ=0.000000D+00  E= 1.800121D+00

 Vector   42  Occ=0.000000D+00  E= 1.972589D+00

 Vector   43  Occ=0.000000D+00  E= 2.302025D+00

 Vector   44  Occ=0.000000D+00  E= 2.326683D+00

 Vector   45  Occ=0.000000D+00  E= 2.351104D+00

 Vector   46  Occ=0.000000D+00  E= 2.500830D+00

 Vector   47  Occ=0.000000D+00  E= 3.786105D+00

 Vector   48  Occ=0.000000D+00  E= 4.294931D+00

     Multipole analysis of the density
     ---------------------------------

     L   x y z        total         alpha         beta         nuclear
     -   - - -        -----         -----         ----         -------
     0   0 0 0     -0.000000    -10.000000     -8.000000     18.000000

     1   1 0 0     -0.617751     -0.451376     -0.166376      0.000000
     1   0 1 0      0.444361      1.574441     -1.130080      0.000000
     1   0 0 1      0.000132     -0.000039      0.000171      0.000000

     2   2 0 0    -10.555882    -10.299550     -9.540424      9.284092
     2   1 1 0      2.239806      0.206513     -0.530379      2.563672
     2   1 0 1     -0.001390     -0.000493     -0.000887     -0.000010
     2   0 2 0    -12.898036    -69.995542    -54.370399    111.467905
     2   0 1 1      0.000707     -0.000089      0.000063      0.000733

 Total times  cpu:        2.6s     wall:        2.6s
