============================== echo of input deck ==============================
echo
title "Trichloroethene BLYP/DZVP2 solvated (UA Radii)"

start trichloro_dat

charge 0

geometry  nocenter noautosym
C                      -0.432708   -0.106760   -0.000110
C                       0.651851   -0.916931    0.000102
Cl                     -2.050484   -0.814197   -0.000276
Cl                     -0.368033    1.642387   -0.000113
Cl                      2.309119   -0.349158    0.000383
H                       0.544897   -2.001406    0.000149
end

basis "ao basis" print
H  library "DZVP2 (DFT Orbital)"
C  library "DZVP2 (DFT Orbital)"
Cl library "DZVP2 (DFT Orbital)"
end

dft
   mult 1
   xc becke88 lyp
   convergence lshift 0.05
   iterations 5000
   print cosmo_energies
end
task dft optimize
cosmo
  lineq  0
  radius 1.962
         2.178
         2.376
         2.376
         2.376
         0.000
end
task dft energy

================================================================================

         Total DFT energy =    -1457.336319960966

 Vector   54  Occ=0.000000D+00  E= 4.587568D-01

 Vector   55  Occ=0.000000D+00  E= 6.504861D-01

@ Step       Energy      Delta E   Gmax     Grms     Xrms     Xmax   Walltime
@ ---- ---------------- -------- -------- -------- -------- -------- --------
@    0   -1457.33631996  0.0D+00  0.00023  0.00007  0.00000  0.00000     37.5
         Total DFT energy =    -1457.336320178852

 Vector   17  Occ=2.000000D+00  E=-7.028625D+00

 Vector   18  Occ=2.000000D+00  E=-8.503653D-01

 Vector   19  Occ=2.000000D+00  E=-7.985007D-01

 Vector   20  Occ=2.000000D+00  E=-7.737591D-01

 Vector   21  Occ=2.000000D+00  E=-6.681088D-01

 Vector   22  Occ=2.000000D+00  E=-5.237047D-01

 Vector   23  Occ=2.000000D+00  E=-4.591886D-01

 Vector   24  Occ=2.000000D+00  E=-4.425992D-01

 Vector   25  Occ=2.000000D+00  E=-3.864570D-01

 Vector   26  Occ=2.000000D+00  E=-3.774512D-01

 Vector   27  Occ=2.000000D+00  E=-3.184362D-01

 Vector   28  Occ=2.000000D+00  E=-3.117574D-01

 Vector   29  Occ=2.000000D+00  E=-2.997840D-01

 Vector   30  Occ=2.000000D+00  E=-2.926762D-01

 Vector   31  Occ=2.000000D+00  E=-2.809402D-01

 Vector   32  Occ=2.000000D+00  E=-2.272288D-01

 Vector   33  Occ=0.000000D+00  E=-6.436512D-02

 Vector   34  Occ=0.000000D+00  E=-5.681615D-02

 Vector   35  Occ=0.000000D+00  E=-4.250704D-02

 Vector   36  Occ=0.000000D+00  E= 2.783736D-02

 Vector   37  Occ=0.000000D+00  E= 1.028658D-01

 Vector   38  Occ=0.000000D+00  E= 1.453233D-01

 Vector   39  Occ=0.000000D+00  E= 1.759596D-01

 Vector   40  Occ=0.000000D+00  E= 1.837560D-01

 Vector   41  Occ=0.000000D+00  E= 2.122484D-01

 Vector   42  Occ=0.000000D+00  E= 2.231837D-01

 Vector   43  Occ=0.000000D+00  E= 2.570051D-01

 Vector   44  Occ=0.000000D+00  E= 2.874865D-01

 Vector   45  Occ=0.000000D+00  E= 3.001338D-01

 Vector   46  Occ=0.000000D+00  E= 3.286004D-01

 Vector   47  Occ=0.000000D+00  E= 3.382116D-01

 Vector   48  Occ=0.000000D+00  E= 3.425643D-01

 Vector   49  Occ=0.000000D+00  E= 3.568111D-01

 Vector   50  Occ=0.000000D+00  E= 3.759184D-01

 Vector   51  Occ=0.000000D+00  E= 3.768760D-01

 Vector   52  Occ=0.000000D+00  E= 3.917129D-01

 Vector   53  Occ=0.000000D+00  E= 4.088647D-01

 Vector   54  Occ=0.000000D+00  E= 4.587723D-01

 Vector   55  Occ=0.000000D+00  E= 6.504495D-01

         Total DFT energy =  -1457.336320178852
@    1   -1457.33632018 -2.2D-07  0.00013  0.00004  0.00030  0.00074     53.0
@    1   -1457.33632018 -2.2D-07  0.00013  0.00004  0.00030  0.00074     53.0

 Output coordinates in angstroms (scale by  1.889725989 to convert to a.u.)

  No.       Tag          Charge          X              Y              Z
 ---- ---------------- ---------- -------------- -------------- --------------
    1 C                    6.0000    -0.43261233    -0.10647585    -0.00009150
    2 C                    6.0000     0.65186199    -0.91692104     0.00011269
    3 Cl                  17.0000    -2.05021961    -0.81422910    -0.00028817
    4 Cl                  17.0000    -0.36842449     1.64235227    -0.00011714
    5 Cl                  17.0000     2.30930862    -0.34940992     0.00037257
    6 H                    1.0000     0.54472782    -2.00138136     0.00014655

         Total DFT energy =    -1457.339354092747

                       DFT Final Molecular Orbital Analysis
                       ------------------------------------

 Vector   17  Occ=2.000000D+00  E=-7.028361D+00

 Vector   18  Occ=2.000000D+00  E=-8.492241D-01

 Vector   19  Occ=2.000000D+00  E=-7.975340D-01

 Vector   20  Occ=2.000000D+00  E=-7.733397D-01

 Vector   21  Occ=2.000000D+00  E=-6.652979D-01

 Vector   22  Occ=2.000000D+00  E=-5.195655D-01

 Vector   23  Occ=2.000000D+00  E=-4.554881D-01

 Vector   24  Occ=2.000000D+00  E=-4.409435D-01

 Vector   25  Occ=2.000000D+00  E=-3.832146D-01

 Vector   26  Occ=2.000000D+00  E=-3.763952D-01

 Vector   27  Occ=2.000000D+00  E=-3.184399D-01

 Vector   28  Occ=2.000000D+00  E=-3.117156D-01

 Vector   29  Occ=2.000000D+00  E=-3.000760D-01

 Vector   30  Occ=2.000000D+00  E=-2.918981D-01

 Vector   31  Occ=2.000000D+00  E=-2.809497D-01

 Vector   32  Occ=2.000000D+00  E=-2.257877D-01

 Vector   33  Occ=0.000000D+00  E=-6.118369D-02

 Vector   34  Occ=0.000000D+00  E=-5.556894D-02

 Vector   35  Occ=0.000000D+00  E=-4.100642D-02

 Vector   36  Occ=0.000000D+00  E= 3.596707D-02

 Vector   37  Occ=0.000000D+00  E= 1.082142D-01

 Vector   38  Occ=0.000000D+00  E= 1.546413D-01

 Vector   39  Occ=0.000000D+00  E= 1.785749D-01

 Vector   40  Occ=0.000000D+00  E= 1.862873D-01

 Vector   41  Occ=0.000000D+00  E= 2.141301D-01

 Vector   42  Occ=0.000000D+00  E= 2.273942D-01

 Vector   43  Occ=0.000000D+00  E= 2.595749D-01

 Vector   44  Occ=0.000000D+00  E= 2.882925D-01

 Vector   45  Occ=0.000000D+00  E= 3.003647D-01

 Vector   46  Occ=0.000000D+00  E= 3.276839D-01

 Vector   47  Occ=0.000000D+00  E= 3.368434D-01

 Vector   48  Occ=0.000000D+00  E= 3.444083D-01

 Vector   49  Occ=0.000000D+00  E= 3.588108D-01

 Vector   50  Occ=0.000000D+00  E= 3.749810D-01

 Vector   51  Occ=0.000000D+00  E= 3.788042D-01

 Vector   52  Occ=0.000000D+00  E= 3.897242D-01

 Vector   53  Occ=0.000000D+00  E= 4.089654D-01

 Vector   54  Occ=0.000000D+00  E= 4.604594D-01

 Vector   55  Occ=0.000000D+00  E= 6.512322D-01

     Multipole analysis of the density
     ---------------------------------

     L   x y z        total         alpha         beta         nuclear
     -   - - -        -----         -----         ----         -------
     0   0 0 0     -0.000000    -32.000000    -32.000000     64.000000

     1   1 0 0     -0.012787     -0.007832     -0.007832      0.002877
     1   0 1 0     -0.511033     -0.252080     -0.252080     -0.006874
     1   0 0 1      0.000028      0.000281      0.000281     -0.000534

     2   2 0 0    -37.701482   -319.523519   -319.523519    601.345556
     2   1 1 0      0.068963      0.078712      0.078712     -0.088460
     2   1 0 1     -0.000026     -0.046726     -0.046726      0.093425
     2   0 2 0    -34.024256   -138.996880   -138.996880    243.969504
     2   0 1 1     -0.000116      0.004137      0.004137     -0.008390

 Total times  cpu:       65.9s     wall:       73.0s
