============================== echo of input deck ==============================
echo
title "Trichloroethene BLYP/DZVP2 solvated (UA Radii)"

start trichloro_dat

charge 0

geometry  nocenter noautosym
C                      -0.432708   -0.106760   -0.000110
C                       0.651851   -0.916931    0.000102
Cl                     -2.050484   -0.814197   -0.000276
Cl                     -0.368033    1.642387   -0.000113
Cl                      2.309119   -0.349158    0.000383
H                       0.544897   -2.001406    0.000149
end

basis "ao basis" print
H  library "DZVP2 (DFT Orbital)"
C  library "DZVP2 (DFT Orbital)"
Cl library "DZVP2 (DFT Orbital)"
end

dft
   mult 1
   xc becke88 lyp
   convergence lshift 0.05
   iterations 5000
   print cosmo_energies
end
task dft optimize
cosmo
  lineq  0
  radius 1.962
         2.178
         2.376
         2.376
         2.376
         0.000
end
task dft energy

================================================================================

         Total DFT energy =    -1457.336319833341
@ Step       Energy      Delta E   Gmax     Grms     Xrms     Xmax   Walltime
@ ---- ---------------- -------- -------- -------- -------- -------- --------
@    0   -1457.33631983  0.0D+00  0.00023  0.00007  0.00000  0.00000      9.7
         Total DFT energy =    -1457.336320051008
         Total DFT energy =  -1457.336320051008
@    1   -1457.33632005 -2.2D-07  0.00013  0.00004  0.00030  0.00074     13.5
@    1   -1457.33632005 -2.2D-07  0.00013  0.00004  0.00030  0.00074     13.5

 Output coordinates in angstroms (scale by  1.889725989 to convert to a.u.)

  No.       Tag          Charge          X              Y              Z
 ---- ---------------- ---------- -------------- -------------- --------------
    1 C                    6.0000    -0.43261239    -0.10647587    -0.00009151
    2 C                    6.0000     0.65186196    -0.91692108     0.00011265
    3 Cl                  17.0000    -2.05021971    -0.81422912    -0.00028812
    4 Cl                  17.0000    -0.36842432     1.64235224    -0.00011716
    5 Cl                  17.0000     2.30930854    -0.34940986     0.00037262
    6 H                    1.0000     0.54472792    -2.00138131     0.00014651

         Total DFT energy =    -1457.339353959723

                       DFT Final Molecular Orbital Analysis
                       ------------------------------------

 Vector    1  Occ=2.000000D+00  E=-1.007930D+02

 Vector   13  Occ=2.000000D+00  E=-7.036693D+00

 Vector   14  Occ=2.000000D+00  E=-7.034471D+00

 Vector   15  Occ=2.000000D+00  E=-7.034240D+00

 Vector   16  Occ=2.000000D+00  E=-7.029366D+00

 Vector   17  Occ=2.000000D+00  E=-7.028360D+00

 Vector   18  Occ=2.000000D+00  E=-8.492242D-01

 Vector   19  Occ=2.000000D+00  E=-7.975340D-01

 Vector   20  Occ=2.000000D+00  E=-7.733397D-01

 Vector   21  Occ=2.000000D+00  E=-6.652979D-01

 Vector   22  Occ=2.000000D+00  E=-5.195653D-01

 Vector   23  Occ=2.000000D+00  E=-4.554881D-01

 Vector   24  Occ=2.000000D+00  E=-4.409434D-01

 Vector   25  Occ=2.000000D+00  E=-3.832146D-01

 Vector   26  Occ=2.000000D+00  E=-3.763952D-01

 Vector   27  Occ=2.000000D+00  E=-3.184399D-01

 Vector   28  Occ=2.000000D+00  E=-3.117156D-01

 Vector   29  Occ=2.000000D+00  E=-3.000760D-01

 Vector   30  Occ=2.000000D+00  E=-2.918981D-01

 Vector   31  Occ=2.000000D+00  E=-2.809496D-01

 Vector   32  Occ=2.000000D+00  E=-2.257877D-01

 Vector   33  Occ=0.000000D+00  E=-6.118368D-02

 Vector   34  Occ=0.000000D+00  E=-5.556877D-02

 Vector   35  Occ=0.000000D+00  E=-4.100622D-02

 Vector   36  Occ=0.000000D+00  E= 3.596712D-02

 Vector   37  Occ=0.000000D+00  E= 1.082144D-01

 Vector   38  Occ=0.000000D+00  E= 1.546415D-01

 Vector   39  Occ=0.000000D+00  E= 1.785743D-01

 Vector   40  Occ=0.000000D+00  E= 1.862873D-01

 Vector   41  Occ=0.000000D+00  E= 2.141291D-01

 Vector   42  Occ=0.000000D+00  E= 2.273942D-01

 Vector   43  Occ=0.000000D+00  E= 2.595750D-01

 Vector   44  Occ=0.000000D+00  E= 2.882921D-01

 Vector   45  Occ=0.000000D+00  E= 3.003645D-01

 Vector   46  Occ=0.000000D+00  E= 3.276838D-01

 Vector   47  Occ=0.000000D+00  E= 3.368433D-01

 Vector   48  Occ=0.000000D+00  E= 3.444084D-01

 Vector   49  Occ=0.000000D+00  E= 3.588109D-01

 Vector   50  Occ=0.000000D+00  E= 3.749808D-01

 Vector   51  Occ=0.000000D+00  E= 3.788043D-01

 Vector   52  Occ=0.000000D+00  E= 3.897241D-01

 Vector   53  Occ=0.000000D+00  E= 4.089653D-01

 Vector   54  Occ=0.000000D+00  E= 4.604589D-01

 Vector   55  Occ=0.000000D+00  E= 6.512321D-01

 Vector   56  Occ=0.000000D+00  E= 7.065437D-01

 Vector   57  Occ=0.000000D+00  E= 7.141660D-01

 Vector   58  Occ=0.000000D+00  E= 7.423115D-01

 Vector   59  Occ=0.000000D+00  E= 7.504783D-01

 Vector   60  Occ=0.000000D+00  E= 7.616241D-01

 Vector   61  Occ=0.000000D+00  E= 7.833613D-01

 Vector   62  Occ=0.000000D+00  E= 7.865506D-01

 Vector   63  Occ=0.000000D+00  E= 7.889753D-01

 Vector   64  Occ=0.000000D+00  E= 7.928936D-01

 Vector   65  Occ=0.000000D+00  E= 8.054935D-01

 Vector   66  Occ=0.000000D+00  E= 8.101103D-01

 Vector   67  Occ=0.000000D+00  E= 8.326142D-01

 Vector   68  Occ=0.000000D+00  E= 8.396989D-01

 Vector   69  Occ=0.000000D+00  E= 8.486715D-01

 Vector   70  Occ=0.000000D+00  E= 8.987350D-01

 Vector   71  Occ=0.000000D+00  E= 9.423962D-01

 Vector   72  Occ=0.000000D+00  E= 1.013126D+00

 Vector   73  Occ=0.000000D+00  E= 1.048056D+00

 Vector   74  Occ=0.000000D+00  E= 1.057715D+00

 Vector   75  Occ=0.000000D+00  E= 1.086509D+00

 Vector   76  Occ=0.000000D+00  E= 1.206954D+00

 Vector   77  Occ=0.000000D+00  E= 1.332659D+00

 Vector   78  Occ=0.000000D+00  E= 1.379988D+00

 Vector   79  Occ=0.000000D+00  E= 1.511963D+00

 Vector   80  Occ=0.000000D+00  E= 1.587025D+00

 Vector   81  Occ=0.000000D+00  E= 1.706172D+00

 Vector   82  Occ=0.000000D+00  E= 1.712624D+00

 Vector   83  Occ=0.000000D+00  E= 1.848592D+00

 Vector   84  Occ=0.000000D+00  E= 1.872934D+00

 Vector   85  Occ=0.000000D+00  E= 2.055607D+00

 Vector   86  Occ=0.000000D+00  E= 2.244234D+00

 Vector   87  Occ=0.000000D+00  E= 2.558898D+00

 Vector   88  Occ=0.000000D+00  E= 2.710690D+00

 Vector   89  Occ=0.000000D+00  E= 3.069657D+00

 Vector   90  Occ=0.000000D+00  E= 4.005649D+00

 Vector   91  Occ=0.000000D+00  E= 4.142989D+00

 Vector   92  Occ=0.000000D+00  E= 4.222476D+00

     Multipole analysis of the density
     ---------------------------------

     L   x y z        total         alpha         beta         nuclear
     -   - - -        -----         -----         ----         -------
     0   0 0 0     -0.000000    -32.000000    -32.000000     64.000000

     1   1 0 0     -0.012787     -0.007832     -0.007832      0.002876
     1   0 1 0     -0.511033     -0.252079     -0.252079     -0.006874
     1   0 0 1      0.000028      0.000280      0.000280     -0.000533

     2   2 0 0    -37.701486   -319.523518   -319.523518    601.345550
     2   1 1 0      0.068965      0.078695      0.078695     -0.088426
     2   1 0 1     -0.000027     -0.046727     -0.046727      0.093427
     2   0 2 0    -34.024261   -138.996880   -138.996880    243.969499
     2   0 1 1     -0.000115      0.004140      0.004140     -0.008395

 Total times  cpu:       20.4s     wall:       20.4s
