============================== echo of input deck ==============================
echo
title "test4 MPWB1K/6-31+G* HF optimization "
start  dft_mpwb1khf

geometry
F        0.000000    0.000000    0.108786
H        0.000000    0.000000   -0.870284
end

basis
* library 6-31+G*
end

dft
xc  MPWB1K
mult 1
grid fine
end

task dft  optimize

================================================================================

         Total DFT energy =     -100.404118823377
@ Step       Energy      Delta E   Gmax     Grms     Xrms     Xmax   Walltime
@ ---- ---------------- -------- -------- -------- -------- -------- --------
@    0    -100.40411882  0.0D+00  0.05160  0.05160  0.00000  0.00000      0.2
         Total DFT energy =     -100.405166106398

 Vector    5  Occ=2.000000D+00  E=-4.954626D-01  Symmetry=e

 Vector    6  Occ=0.000000D+00  E= 9.849826D-02  Symmetry=a1

 Vector    7  Occ=0.000000D+00  E= 2.286543D-01  Symmetry=a1

 Vector    8  Occ=0.000000D+00  E= 2.360098D-01  Symmetry=e

 Vector    9  Occ=0.000000D+00  E= 2.360098D-01  Symmetry=e

 Vector   10  Occ=0.000000D+00  E= 2.919899D-01  Symmetry=a1

 Vector   11  Occ=0.000000D+00  E= 1.097223D+00  Symmetry=a1

 Vector   12  Occ=0.000000D+00  E= 1.540600D+00  Symmetry=e

 Vector   13  Occ=0.000000D+00  E= 1.540600D+00  Symmetry=e

 Vector   14  Occ=0.000000D+00  E= 1.569930D+00  Symmetry=a1

 Vector   15  Occ=0.000000D+00  E= 1.668626D+00  Symmetry=a1

 Vector   16  Occ=0.000000D+00  E= 1.839957D+00  Symmetry=e

 Vector   17  Occ=0.000000D+00  E= 1.839957D+00  Symmetry=e

 Vector   18  Occ=0.000000D+00  E= 1.910684D+00  Symmetry=b2

 Vector   19  Occ=0.000000D+00  E= 1.910684D+00  Symmetry=b1

 Vector   20  Occ=0.000000D+00  E= 2.820697D+00  Symmetry=a1

 Vector   21  Occ=0.000000D+00  E= 4.322391D+00  Symmetry=a1

         Total DFT energy =     -100.406906494354

 Vector    1  Occ=2.000000D+00  E=-2.519224D+01  Symmetry=a1

 Vector    2  Occ=2.000000D+00  E=-1.328087D+00  Symmetry=a1

 Vector    3  Occ=2.000000D+00  E=-6.245518D-01  Symmetry=a1

 Vector    4  Occ=2.000000D+00  E=-4.914900D-01  Symmetry=e

 Vector    5  Occ=2.000000D+00  E=-4.914900D-01  Symmetry=e

 Vector    6  Occ=0.000000D+00  E= 8.846439D-02  Symmetry=a1

 Vector    7  Occ=0.000000D+00  E= 2.283365D-01  Symmetry=a1

 Vector    8  Occ=0.000000D+00  E= 2.366341D-01  Symmetry=e

 Vector    9  Occ=0.000000D+00  E= 2.366341D-01  Symmetry=e

 Vector   10  Occ=0.000000D+00  E= 2.848026D-01  Symmetry=a1

 Vector   11  Occ=0.000000D+00  E= 1.039705D+00  Symmetry=a1

 Vector   12  Occ=0.000000D+00  E= 1.543004D+00  Symmetry=e

 Vector   13  Occ=0.000000D+00  E= 1.543004D+00  Symmetry=e

 Vector   14  Occ=0.000000D+00  E= 1.587815D+00  Symmetry=a1

 Vector   15  Occ=0.000000D+00  E= 1.676206D+00  Symmetry=a1

 Vector   16  Occ=0.000000D+00  E= 1.847637D+00  Symmetry=e

 Vector   17  Occ=0.000000D+00  E= 1.847637D+00  Symmetry=e

 Vector   18  Occ=0.000000D+00  E= 1.914577D+00  Symmetry=b2

 Vector   19  Occ=0.000000D+00  E= 1.914577D+00  Symmetry=b1

 Vector   20  Occ=0.000000D+00  E= 2.738264D+00  Symmetry=a1

 Vector   21  Occ=0.000000D+00  E= 4.321906D+00  Symmetry=a1

@    1    -100.40690649 -2.8D-03  0.00199  0.00199  0.02839  0.04918      0.4
         Total DFT energy =     -100.406909633694

 Vector    1  Occ=2.000000D+00  E=-2.519218D+01  Symmetry=a1

 Vector    2  Occ=2.000000D+00  E=-1.328789D+00  Symmetry=a1

 Vector    3  Occ=2.000000D+00  E=-6.251377D-01  Symmetry=a1

 Vector    4  Occ=2.000000D+00  E=-4.916936D-01  Symmetry=e

 Vector    5  Occ=2.000000D+00  E=-4.916936D-01  Symmetry=e

 Vector    6  Occ=0.000000D+00  E= 8.904425D-02  Symmetry=a1

 Vector    7  Occ=0.000000D+00  E= 2.283666D-01  Symmetry=a1

 Vector    8  Occ=0.000000D+00  E= 2.366011D-01  Symmetry=e

 Vector    9  Occ=0.000000D+00  E= 2.366011D-01  Symmetry=e

 Vector   10  Occ=0.000000D+00  E= 2.850992D-01  Symmetry=a1

 Vector   11  Occ=0.000000D+00  E= 1.042552D+00  Symmetry=a1

 Vector   12  Occ=0.000000D+00  E= 1.542874D+00  Symmetry=e

 Vector   13  Occ=0.000000D+00  E= 1.542874D+00  Symmetry=e

 Vector   14  Occ=0.000000D+00  E= 1.586963D+00  Symmetry=a1

 Vector   15  Occ=0.000000D+00  E= 1.675742D+00  Symmetry=a1

 Vector   16  Occ=0.000000D+00  E= 1.847236D+00  Symmetry=e

 Vector   17  Occ=0.000000D+00  E= 1.847236D+00  Symmetry=e

 Vector   18  Occ=0.000000D+00  E= 1.914376D+00  Symmetry=b2

 Vector   19  Occ=0.000000D+00  E= 1.914376D+00  Symmetry=b1

 Vector   20  Occ=0.000000D+00  E= 2.742537D+00  Symmetry=a1

 Vector   21  Occ=0.000000D+00  E= 4.321805D+00  Symmetry=a1

         Total DFT energy =   -100.406909633694
@    2    -100.40690963 -3.1D-06  0.00041  0.00041  0.00114  0.00198      0.6
         Total DFT energy =     -100.406909765585

                       DFT Final Molecular Orbital Analysis
                       ------------------------------------

 Vector    1  Occ=2.000000D+00  E=-2.519226D+01  Symmetry=a1

 Vector    2  Occ=2.000000D+00  E=-1.328690D+00  Symmetry=a1

 Vector    3  Occ=2.000000D+00  E=-6.250604D-01  Symmetry=a1

 Vector    4  Occ=2.000000D+00  E=-4.916814D-01  Symmetry=e

 Vector    5  Occ=2.000000D+00  E=-4.916814D-01  Symmetry=e

 Vector    6  Occ=0.000000D+00  E= 8.893947D-02  Symmetry=a1

 Vector    7  Occ=0.000000D+00  E= 2.283585D-01  Symmetry=a1

 Vector    8  Occ=0.000000D+00  E= 2.366041D-01  Symmetry=e

 Vector    9  Occ=0.000000D+00  E= 2.366041D-01  Symmetry=e

 Vector   10  Occ=0.000000D+00  E= 2.850456D-01  Symmetry=a1

 Vector   11  Occ=0.000000D+00  E= 1.042052D+00  Symmetry=a1

 Vector   12  Occ=0.000000D+00  E= 1.542878D+00  Symmetry=e

 Vector   13  Occ=0.000000D+00  E= 1.542878D+00  Symmetry=e

 Vector   14  Occ=0.000000D+00  E= 1.587094D+00  Symmetry=a1

 Vector   15  Occ=0.000000D+00  E= 1.675810D+00  Symmetry=a1

 Vector   16  Occ=0.000000D+00  E= 1.847293D+00  Symmetry=e

 Vector   17  Occ=0.000000D+00  E= 1.847293D+00  Symmetry=e

 Vector   18  Occ=0.000000D+00  E= 1.914395D+00  Symmetry=b2

 Vector   19  Occ=0.000000D+00  E= 1.914395D+00  Symmetry=b1

 Vector   20  Occ=0.000000D+00  E= 2.741793D+00  Symmetry=a1

 Vector   21  Occ=0.000000D+00  E= 4.321804D+00  Symmetry=a1

     Multipole analysis of the density
     ---------------------------------

     L   x y z        total         alpha         beta         nuclear
     -   - - -        -----         -----         ----         -------
     0   0 0 0     -0.000000     -5.000000     -5.000000     10.000000

     1   1 0 0      0.000000      0.000000      0.000000      0.000000
     1   0 1 0      0.000000      0.000000      0.000000      0.000000
     1   0 0 1     -0.805764     -0.199628     -0.199628     -0.406508

     2   2 0 0     -4.339195     -2.169597     -2.169597      0.000000
     2   1 1 0     -0.000000     -0.000000     -0.000000      0.000000
     2   1 0 1      0.000000      0.000000      0.000000      0.000000
     2   0 2 0     -4.339195     -2.169597     -2.169597      0.000000
     2   0 1 1      0.000000      0.000000      0.000000      0.000000

         Total DFT energy =   -100.406909765585
@    3    -100.40690977 -1.3D-07  0.00001  0.00001  0.00020  0.00034      0.7
@    3    -100.40690977 -1.3D-07  0.00001  0.00001  0.00020  0.00034      0.7

 Output coordinates in angstroms (scale by  1.889725989 to convert to a.u.)

  No.       Tag          Charge          X              Y              Z
 ---- ---------------- ---------- -------------- -------------- --------------
    1 F                    9.0000     0.00000000     0.00000000     0.07101764
    2 H                    1.0000     0.00000000     0.00000000    -0.85427364

 Total times  cpu:        0.7s     wall:        0.7s
