============================== echo of input deck ==============================
echo

title "h2o_sicpert"

start h2o_sicpert

geometry units au
 O 0       0        0
 H 0       1.430   -1.107
 H 0      -1.430   -1.107
end

basis
  O library 6-31g*
  H library 6-31g*
end

dft
 xc slater 1.0 vwn_5 1.0
 mult 1
 sic perturbative
end

task dft energy
================================================================================

 Output coordinates in a.u. (scale by  1.000000000 to convert to a.u.)

  No.       Tag          Charge          X              Y              Z
 ---- ---------------- ---------- -------------- -------------- --------------
    1 O                    8.0000     0.00000000     0.00000000     0.22140000
    2 H                    1.0000    -1.43000000     0.00000000    -0.88560000
    3 H                    1.0000     1.43000000     0.00000000    -0.88560000

         Total DFT energy =      -76.619647546642

                       DFT Final Molecular Orbital Analysis
                       ------------------------------------

 Vector    1  Occ=2.000000D+00  E=-1.859871D+01  Symmetry=a1

 Vector    2  Occ=2.000000D+00  E=-9.033272D-01  Symmetry=a1

 Vector    3  Occ=2.000000D+00  E=-4.676981D-01  Symmetry=b1

 Vector    4  Occ=2.000000D+00  E=-3.107451D-01  Symmetry=a1

 Vector    5  Occ=2.000000D+00  E=-2.310741D-01  Symmetry=b2

 Vector    6  Occ=0.000000D+00  E= 4.307299D-02  Symmetry=a1

 Vector    7  Occ=0.000000D+00  E= 1.268050D-01  Symmetry=b1

 Vector    8  Occ=0.000000D+00  E= 7.441819D-01  Symmetry=b1

 Vector    9  Occ=0.000000D+00  E= 8.119768D-01  Symmetry=a1

 Vector   10  Occ=0.000000D+00  E= 8.285036D-01  Symmetry=b2

 Vector   11  Occ=0.000000D+00  E= 8.536425D-01  Symmetry=a1

 Vector   12  Occ=0.000000D+00  E= 9.992165D-01  Symmetry=b1

 Vector   13  Occ=0.000000D+00  E= 1.136704D+00  Symmetry=a1

 Vector   14  Occ=0.000000D+00  E= 1.658913D+00  Symmetry=a1

 Vector   15  Occ=0.000000D+00  E= 1.673461D+00  Symmetry=a2

 Vector   16  Occ=0.000000D+00  E= 1.711516D+00  Symmetry=b2

 Vector   17  Occ=0.000000D+00  E= 2.223788D+00  Symmetry=a1

 Vector   18  Occ=0.000000D+00  E= 2.524506D+00  Symmetry=b1

 Vector   19  Occ=0.000000D+00  E= 3.478457D+00  Symmetry=a1

     Multipole analysis of the density
     ---------------------------------

     L   x y z        total         alpha         beta         nuclear
     -   - - -        -----         -----         ----         -------
     0   0 0 0     -0.000000     -5.000000     -5.000000     10.000000

     1   1 0 0      0.000000      0.000000      0.000000      0.000000
     1   0 1 0      0.000000      0.000000      0.000000      0.000000
     1   0 0 1     -0.836391     -0.418195     -0.418195      0.000000

     2   2 0 0     -3.178118     -3.633959     -3.633959      4.089800
     2   1 1 0      0.000000      0.000000      0.000000      0.000000
     2   1 0 1      0.000000      0.000000      0.000000      0.000000
     2   0 2 0     -5.383478     -2.691739     -2.691739      0.000000
     2   0 1 1      0.000000      0.000000      0.000000      0.000000

 Total times  cpu:        0.2s     wall:        0.2s
