============================== echo of input deck ==============================

echo

start dft_ozone

#
# Ozone --- check C2V symmetry for all local and non-local density approximations
#           DFT
#

geometry units au noprint  # 3-21g RHF singlet optimized geometry
  symmetry c2v
  O       0.000000   0.000000  -0.769844
  O       0.000000   1.961067   0.384922
end

basis noprint
  O library 6-31g*
end

dft; grid fine; convergence  energy 1d-9; end

title "Ozone --- case t1: in-core DFT energy (LDA/LSD)"
task dft energy
title "Ozone --- case t2: in-core DFT analytic gradient (LDA/LSD)"
task dft gradient
#title "Ozone --- case t3: in-core DFT numeric gradient (LDA/LSD)"
#task dft gradient numerical

title "Ozone --- case t4: in-core DFT energy (NLDA/NLSD)"
dft; xc becke88 perdew86; end
task dft energy
title "Ozone --- case t5: in-core DFT analytic gradient (NLDA/NLSD)"
task dft gradient
#title "Ozone --- case t6: in-core DFT numeric gradient (NLDA/NLSD)"
#task dft gradient numerical

title "Ozone --- case t7: in-core DFT energy (NLDA/NLSD)"
dft; xc becke88 perdew91; end
task dft energy
title "Ozone --- case t8: in-core DFT analytic gradient (NLDA/NLSD)"
task dft gradient
#title "Ozone --- case t9: in-core DFT numeric gradient (NLDA/NLSD)"
#task dft gradient numerical

title "Ozone --- case t10: in-core DFT energy (combination potentials)"
dft; xc acm; end
task dft energy
title "Ozone --- case t11: in-core DFT analytic gradient (combination potentials)"
task dft gradient
#title "Ozone --- case t12: in-core DFT numeric gradient (combination potentials)"
#task dft gradient numerical

title "Ozone --- case t13: in-core DFT energy (combination potentials)"
dft; xc b3lyp; end
task dft energy
title "Ozone --- case t14: in-core DFT analytic gradient (combination potentials)"
task dft gradient
#title "Ozone --- case t15: in-core DFT numeric gradient (combination potentials)"
#task dft gradient numerical

================================================================================

         Total DFT energy =     -223.844935394362
         Total DFT energy =   -223.844935394362
         Total DFT energy =     -225.429299436811
         Total DFT energy =   -225.429299436811
         Total DFT energy =     -225.409220136258
         Total DFT energy =   -225.409220136258
         Total DFT energy =     -225.320850973403

 Vector   11  Occ=2.000000D+00  E=-3.445266D-01  Symmetry=b2

 Vector   12  Occ=2.000000D+00  E=-3.265126D-01  Symmetry=a1

 Vector   13  Occ=0.000000D+00  E=-1.631908D-01  Symmetry=b1

 Vector   14  Occ=0.000000D+00  E= 1.541741D-01  Symmetry=a1

 Vector   15  Occ=0.000000D+00  E= 2.503278D-01  Symmetry=b2

 Vector   16  Occ=0.000000D+00  E= 6.082425D-01  Symmetry=a1

 Vector   17  Occ=0.000000D+00  E= 7.114046D-01  Symmetry=b2

 Vector   18  Occ=0.000000D+00  E= 7.277824D-01  Symmetry=a1

 Vector   19  Occ=0.000000D+00  E= 7.596337D-01  Symmetry=b1

 Vector   20  Occ=0.000000D+00  E= 8.048769D-01  Symmetry=a1

 Vector   21  Occ=0.000000D+00  E= 8.544913D-01  Symmetry=b2

 Vector   22  Occ=0.000000D+00  E= 8.986664D-01  Symmetry=a2

 Vector   23  Occ=0.000000D+00  E= 9.188373D-01  Symmetry=a1

 Vector   24  Occ=0.000000D+00  E= 9.369244D-01  Symmetry=b1

 Vector   25  Occ=0.000000D+00  E= 9.985277D-01  Symmetry=b2

 Vector   26  Occ=0.000000D+00  E= 1.240428D+00  Symmetry=b2

 Vector   27  Occ=0.000000D+00  E= 1.257457D+00  Symmetry=a1

 Vector   28  Occ=0.000000D+00  E= 1.372930D+00  Symmetry=a2

 Vector   29  Occ=0.000000D+00  E= 1.398588D+00  Symmetry=b1

 Vector   30  Occ=0.000000D+00  E= 1.419904D+00  Symmetry=a1

 Vector   31  Occ=0.000000D+00  E= 1.764320D+00  Symmetry=a2

 Vector   32  Occ=0.000000D+00  E= 1.765250D+00  Symmetry=b2

 Vector   33  Occ=0.000000D+00  E= 1.808298D+00  Symmetry=b1

 Vector   34  Occ=0.000000D+00  E= 1.842670D+00  Symmetry=a1

 Vector   35  Occ=0.000000D+00  E= 2.090163D+00  Symmetry=b2

 Vector   36  Occ=0.000000D+00  E= 2.351298D+00  Symmetry=a1

 Vector   37  Occ=0.000000D+00  E= 2.443311D+00  Symmetry=b1

 Vector   38  Occ=0.000000D+00  E= 2.560652D+00  Symmetry=b2

 Vector   39  Occ=0.000000D+00  E= 2.586868D+00  Symmetry=a1

 Vector   40  Occ=0.000000D+00  E= 2.618965D+00  Symmetry=a2

 Vector   41  Occ=0.000000D+00  E= 2.817477D+00  Symmetry=b2

 Vector   42  Occ=0.000000D+00  E= 2.945695D+00  Symmetry=a1

 Vector   43  Occ=0.000000D+00  E= 3.241809D+00  Symmetry=a1

 Vector   44  Occ=0.000000D+00  E= 3.452404D+00  Symmetry=b2

 Vector   45  Occ=0.000000D+00  E= 3.685365D+00  Symmetry=a1

         Total DFT energy =   -225.320850973403
         Total DFT energy =     -225.397498577658

                       DFT Final Molecular Orbital Analysis
                       ------------------------------------

 Vector    1  Occ=2.000000D+00  E=-1.945844D+01  Symmetry=a1

 Vector    2  Occ=2.000000D+00  E=-1.926069D+01  Symmetry=b2

 Vector    3  Occ=2.000000D+00  E=-1.926066D+01  Symmetry=a1

 Vector    4  Occ=2.000000D+00  E=-1.426161D+00  Symmetry=a1

 Vector    5  Occ=2.000000D+00  E=-1.137666D+00  Symmetry=b2

 Vector    6  Occ=2.000000D+00  E=-7.613221D-01  Symmetry=a1

 Vector    7  Occ=2.000000D+00  E=-6.316011D-01  Symmetry=b1

 Vector    8  Occ=2.000000D+00  E=-6.111096D-01  Symmetry=a1

 Vector    9  Occ=2.000000D+00  E=-5.945410D-01  Symmetry=b2

 Vector   10  Occ=2.000000D+00  E=-3.643897D-01  Symmetry=a2

 Vector   11  Occ=2.000000D+00  E=-3.429270D-01  Symmetry=b2

 Vector   12  Occ=2.000000D+00  E=-3.251552D-01  Symmetry=a1

 Vector   13  Occ=0.000000D+00  E=-1.612843D-01  Symmetry=b1

 Vector   14  Occ=0.000000D+00  E= 1.545441D-01  Symmetry=a1

 Vector   15  Occ=0.000000D+00  E= 2.502589D-01  Symmetry=b2

 Vector   16  Occ=0.000000D+00  E= 6.040253D-01  Symmetry=a1

 Vector   17  Occ=0.000000D+00  E= 7.047710D-01  Symmetry=b2

 Vector   18  Occ=0.000000D+00  E= 7.204456D-01  Symmetry=a1

 Vector   19  Occ=0.000000D+00  E= 7.525989D-01  Symmetry=b1

 Vector   20  Occ=0.000000D+00  E= 7.979102D-01  Symmetry=a1

 Vector   21  Occ=0.000000D+00  E= 8.496409D-01  Symmetry=b2

 Vector   22  Occ=0.000000D+00  E= 8.919670D-01  Symmetry=a2

 Vector   23  Occ=0.000000D+00  E= 9.149942D-01  Symmetry=a1

 Vector   24  Occ=0.000000D+00  E= 9.296399D-01  Symmetry=b1

 Vector   25  Occ=0.000000D+00  E= 9.947055D-01  Symmetry=b2

 Vector   26  Occ=0.000000D+00  E= 1.236630D+00  Symmetry=b2

 Vector   27  Occ=0.000000D+00  E= 1.258331D+00  Symmetry=a1

 Vector   28  Occ=0.000000D+00  E= 1.384499D+00  Symmetry=a2

 Vector   29  Occ=0.000000D+00  E= 1.408315D+00  Symmetry=b1

 Vector   30  Occ=0.000000D+00  E= 1.428652D+00  Symmetry=a1

 Vector   31  Occ=0.000000D+00  E= 1.772750D+00  Symmetry=b2

 Vector   32  Occ=0.000000D+00  E= 1.772889D+00  Symmetry=a2

 Vector   33  Occ=0.000000D+00  E= 1.816891D+00  Symmetry=b1

 Vector   34  Occ=0.000000D+00  E= 1.849235D+00  Symmetry=a1

 Vector   35  Occ=0.000000D+00  E= 2.097784D+00  Symmetry=b2

 Vector   36  Occ=0.000000D+00  E= 2.358588D+00  Symmetry=a1

 Vector   37  Occ=0.000000D+00  E= 2.451082D+00  Symmetry=b1

 Vector   38  Occ=0.000000D+00  E= 2.567301D+00  Symmetry=b2

 Vector   39  Occ=0.000000D+00  E= 2.590438D+00  Symmetry=a1

 Vector   40  Occ=0.000000D+00  E= 2.627673D+00  Symmetry=a2

 Vector   41  Occ=0.000000D+00  E= 2.818841D+00  Symmetry=b2

 Vector   42  Occ=0.000000D+00  E= 2.950926D+00  Symmetry=a1

 Vector   43  Occ=0.000000D+00  E= 3.240837D+00  Symmetry=a1

 Vector   44  Occ=0.000000D+00  E= 3.450385D+00  Symmetry=b2

 Vector   45  Occ=0.000000D+00  E= 3.682483D+00  Symmetry=a1

     Multipole analysis of the density
     ---------------------------------

     L   x y z        total         alpha         beta         nuclear
     -   - - -        -----         -----         ----         -------
     0   0 0 0     -0.000000    -12.000000    -12.000000     24.000000

     1   1 0 0     -0.000000     -0.000000     -0.000000      0.000000
     1   0 1 0     -0.000000     -0.000000     -0.000000      0.000000
     1   0 0 1     -0.258688     -0.129344     -0.129344      0.000000

     2   2 0 0    -10.489553     -5.244776     -5.244776      0.000000
     2   1 1 0     -0.000000     -0.000000     -0.000000      0.000000
     2   1 0 1      0.000000      0.000000      0.000000      0.000000
     2   0 2 0    -12.625892    -37.079216    -37.079216     61.532540
     2   0 1 1      0.000000      0.000000      0.000000      0.000000

         Total DFT energy =   -225.397498577658
 Total times  cpu:        1.8s     wall:        1.9s
