============================== echo of input deck ==============================
echo
start dft_bsse

charge 0

geometry  g0 autosym units angstrom
zmatrix
    H
    O    1 r2
    H    2 r3    1 a3
    O    3 r4    2 a4    1 d4
    H    4 r5    3 a5    2 d5
    H    4 r6    3 a6    2 d6
    variables
    r2 0.9637
    r3 0.8728
    a3  95.07
    r4 1.8441
    a4 172.11
    d4 179.97
    r5 0.9654
    a5 110.73
    d5  58.09
    r6 0.9654
    a6 110.73
    d6 301.91
end
end
geometry  g1 autosym units angstrom
zmatrix
    H
    O    1 r2
    H    2 r3    1 a3
    bqO  3 r4    2 a4    1 d4
    bqH  4 r5    3 a5    2 d5
    bqH  4 r6    3 a6    2 d6
    variables
    r2 0.9637
    r3 0.8728
    a3  95.07
    r4 1.8441
    a4 172.11
    d4 179.97
    r5 0.9654
    a5 110.73
    d5  58.09
    r6 0.9654
    a6 110.73
    d6 301.91
end
end
geometry  g2 autosym units angstrom
zmatrix
    H
    O    1 r2
    H    2 r3    1 a3
    bqO  3 r4    2 a4    1 d4
    XH  4 r5    3 a5    2 d5
    XH  4 r6    3 a6    2 d6
    variables
    r2 0.9637
    r3 0.8728
    a3  95.07
    r4 1.8441
    a4 172.11
    d4 179.97
    r5 0.9654
    a5 110.73
    d5  58.09
    r6 0.9654
    a6 110.73
    d6 301.91
end
end

basis "ao basis" spherical print
  H library "aug-cc-pVDZ"
  O library "aug-cc-pVDZ"
  bqH library H aug-cc-pVDZ
  bqO library O aug-cc-pVDZ
END

dft
  xc S12g
end

title "H2O"
set geometry g0
task dft

title "H2O with bqs"
set geometry g1
task dft

title "H2O with bqs and Xs"
set geometry g2
task dft

================================================================================

 Output coordinates in angstroms (scale by  1.889725989 to convert to a.u.)

  No.       Tag          Charge          X              Y              Z
 ---- ---------------- ---------- -------------- -------------- --------------
    1 H                    1.0000    -0.83416136    -0.27826910     0.00000000
    2 O                    8.0000     0.10568557    -0.06518357     0.00000000
    3 H                    1.0000    -0.01132321     0.79973769     0.00000000
    4 bqO                  0.0000    -0.00534794     2.64382800     0.00000000
    5 XH                   0.0000     0.47301688     2.98399720    -0.76645218
    6 XH                   0.0000     0.47301688     2.98399720     0.76645218

         Total DFT energy =     -152.859533051768

 Vector   11  Occ=0.000000D+00  E=-4.851524D-02

 Vector   12  Occ=0.000000D+00  E=-2.155226D-03

 Vector   13  Occ=0.000000D+00  E= 1.075233D-02

 Vector   14  Occ=0.000000D+00  E= 4.696415D-02

 Vector   15  Occ=0.000000D+00  E= 8.127542D-02

 Vector   16  Occ=0.000000D+00  E= 9.061389D-02

 Vector   17  Occ=0.000000D+00  E= 1.116332D-01

 Vector   18  Occ=0.000000D+00  E= 1.162018D-01

 Vector   19  Occ=0.000000D+00  E= 1.310282D-01

 Vector   20  Occ=0.000000D+00  E= 1.367501D-01

 Vector   21  Occ=0.000000D+00  E= 1.599208D-01

 Vector   22  Occ=0.000000D+00  E= 1.682483D-01

 Vector   23  Occ=0.000000D+00  E= 1.950400D-01

 Vector   24  Occ=0.000000D+00  E= 2.094871D-01

 Vector   25  Occ=0.000000D+00  E= 2.216113D-01

 Vector   26  Occ=0.000000D+00  E= 2.378822D-01

 Vector   27  Occ=0.000000D+00  E= 2.508465D-01

 Vector   28  Occ=0.000000D+00  E= 3.051762D-01

 Vector   29  Occ=0.000000D+00  E= 3.250559D-01

 Vector   30  Occ=0.000000D+00  E= 3.589589D-01

 Vector   31  Occ=0.000000D+00  E= 3.992485D-01

 Vector   32  Occ=0.000000D+00  E= 4.163128D-01

 Vector   33  Occ=0.000000D+00  E= 4.220764D-01

 Vector   34  Occ=0.000000D+00  E= 4.761964D-01

 Vector   35  Occ=0.000000D+00  E= 4.818142D-01

 Vector   36  Occ=0.000000D+00  E= 4.985945D-01

 Vector   37  Occ=0.000000D+00  E= 5.045405D-01

         Total DFT energy =      -76.420298890207

 Vector    1  Occ=2.000000D+00  E=-1.877872D+01  Symmetry=a'

 Vector    2  Occ=2.000000D+00  E=-9.721758D-01  Symmetry=a'

 Vector    3  Occ=2.000000D+00  E=-4.849274D-01  Symmetry=a'

 Vector    4  Occ=2.000000D+00  E=-3.674409D-01  Symmetry=a'

 Vector    5  Occ=2.000000D+00  E=-2.718620D-01  Symmetry=a"

 Vector    6  Occ=0.000000D+00  E=-3.440941D-02  Symmetry=a'

 Vector    7  Occ=0.000000D+00  E= 2.000351D-02  Symmetry=a'

 Vector    8  Occ=0.000000D+00  E= 4.499690D-02  Symmetry=a"

 Vector    9  Occ=0.000000D+00  E= 5.509875D-02  Symmetry=a'

 Vector   10  Occ=0.000000D+00  E= 7.666424D-02  Symmetry=a'

 Vector   11  Occ=0.000000D+00  E= 1.052483D-01  Symmetry=a'

 Vector   12  Occ=0.000000D+00  E= 1.157163D-01  Symmetry=a'

 Vector   13  Occ=0.000000D+00  E= 1.250207D-01  Symmetry=a"

 Vector   14  Occ=0.000000D+00  E= 1.480859D-01  Symmetry=a'

 Vector   15  Occ=0.000000D+00  E= 1.624721D-01  Symmetry=a"

 Vector   16  Occ=0.000000D+00  E= 1.808442D-01  Symmetry=a'

 Vector   17  Occ=0.000000D+00  E= 1.917422D-01  Symmetry=a'

 Vector   18  Occ=0.000000D+00  E= 2.366920D-01  Symmetry=a'

 Vector   19  Occ=0.000000D+00  E= 2.683481D-01  Symmetry=a"

 Vector   20  Occ=0.000000D+00  E= 2.732194D-01  Symmetry=a'

 Vector   21  Occ=0.000000D+00  E= 3.121390D-01  Symmetry=a'

 Vector   22  Occ=0.000000D+00  E= 3.411282D-01  Symmetry=a"

 Vector   23  Occ=0.000000D+00  E= 3.528775D-01  Symmetry=a"

 Vector   24  Occ=0.000000D+00  E= 3.672287D-01  Symmetry=a'

 Vector   25  Occ=0.000000D+00  E= 4.005970D-01  Symmetry=a'

 Vector   26  Occ=0.000000D+00  E= 4.499549D-01  Symmetry=a'

 Vector   27  Occ=0.000000D+00  E= 4.702868D-01  Symmetry=a'

 Vector   28  Occ=0.000000D+00  E= 4.780348D-01  Symmetry=a"

 Vector   29  Occ=0.000000D+00  E= 4.939698D-01  Symmetry=a'

 Vector   30  Occ=0.000000D+00  E= 5.238439D-01  Symmetry=a"

         Total DFT energy =      -76.420227229984

                       DFT Final Molecular Orbital Analysis
                       ------------------------------------

 Vector    1  Occ=2.000000D+00  E=-1.877857D+01  Symmetry=a'

 Vector    2  Occ=2.000000D+00  E=-9.721759D-01  Symmetry=a'

 Vector    3  Occ=2.000000D+00  E=-4.849371D-01  Symmetry=a'

 Vector    4  Occ=2.000000D+00  E=-3.674377D-01  Symmetry=a'

 Vector    5  Occ=2.000000D+00  E=-2.718630D-01  Symmetry=a"

 Vector    6  Occ=0.000000D+00  E=-3.405218D-02  Symmetry=a'

 Vector    7  Occ=0.000000D+00  E= 2.229305D-02  Symmetry=a'

 Vector    8  Occ=0.000000D+00  E= 7.969795D-02  Symmetry=a'

 Vector    9  Occ=0.000000D+00  E= 9.065538D-02  Symmetry=a"

 Vector   10  Occ=0.000000D+00  E= 1.043694D-01  Symmetry=a'

 Vector   11  Occ=0.000000D+00  E= 1.227270D-01  Symmetry=a'

 Vector   12  Occ=0.000000D+00  E= 1.356420D-01  Symmetry=a'

 Vector   13  Occ=0.000000D+00  E= 1.502065D-01  Symmetry=a'

 Vector   14  Occ=0.000000D+00  E= 1.551740D-01  Symmetry=a"

 Vector   15  Occ=0.000000D+00  E= 1.909185D-01  Symmetry=a'

 Vector   16  Occ=0.000000D+00  E= 2.424538D-01  Symmetry=a'

 Vector   17  Occ=0.000000D+00  E= 2.772060D-01  Symmetry=a"

 Vector   18  Occ=0.000000D+00  E= 2.845639D-01  Symmetry=a'

 Vector   19  Occ=0.000000D+00  E= 3.146540D-01  Symmetry=a'

 Vector   20  Occ=0.000000D+00  E= 3.337992D-01  Symmetry=a"

 Vector   21  Occ=0.000000D+00  E= 4.519978D-01  Symmetry=a'

 Vector   22  Occ=0.000000D+00  E= 4.852725D-01  Symmetry=a'

 Vector   23  Occ=0.000000D+00  E= 5.389767D-01  Symmetry=a'

     Multipole analysis of the density
     ---------------------------------

     L   x y z        total         alpha         beta         nuclear
     -   - - -        -----         -----         ----         -------
     0   0 0 0      0.000000     -5.000000     -5.000000     10.000000

     1   1 0 0     -0.625454     -0.312727     -0.312727      0.000000
     1   0 1 0      0.410249      0.205124      0.205124      0.000000
     1   0 0 1      0.000000      0.000000      0.000000      0.000000

     2   2 0 0     -4.261269     -3.532829     -3.532829      2.804389
     2   1 1 0      0.458288     -0.070743     -0.070743      0.599775
     2   1 0 1      0.000000      0.000000      0.000000      0.000000
     2   0 2 0     -4.100795     -3.391342     -3.391342      2.681888
     2   0 1 1      0.000000      0.000000      0.000000      0.000000

 Total times  cpu:       22.1s     wall:       23.6s
