============================== echo of input deck ==============================
title siosi3

start siosi3_64
echo

geometry units au
O 0.000000 0.000000 0.000000
Si 3.014576 0.000000 0.000000
Si -2.508676 -1.669137 0.090355
O 3.981166 -1.323122 -2.508935
O 3.870273 2.910825 0.000000
O 4.041116 -1.465033 2.376888
O -2.655663 -3.328781 -2.400368
O -2.480544 -3.435889 2.483573
O -4.832471 0.280842 0.142363
Si 5.637169 -3.319181 -4.029830
Si 5.930953 4.953101 0.791790
Si 5.468246 -2.250324 4.885188
Si -7.654391 0.847590 1.014023
Si -3.158194 -4.857247 5.026302
Si -2.974151 -5.921535 -3.888964
H 5.270061 -6.079998 -2.949279
H 8.494671 -2.562004 -3.822741
H 4.688562 -3.250915 -6.887353
H 4.114112 -1.013523 7.254688
H 5.390639 -5.229699 5.239395
H 8.311107 -1.375146 4.719652
H 5.236878 7.507709 -0.616368
H 5.938739 5.355645 3.732678
H 8.621652 4.058320 -0.087848
H -1.107625 -8.007345 -2.844945
H -5.765149 -6.871347 -3.589463
H -2.308182 -5.365343 -6.772894
H -2.645080 -3.056162 7.365261
H -1.433339 -7.291917 5.351028
H -6.013502 -5.704069 4.953988
H -8.533456 3.346292 -0.391100
H -7.795607 1.205101 3.957357
H -9.424475 -1.395251 0.207369
end

dft
  noio
  convergence nolevelshifting nodamping
  print "dft timings"
  tolerances acccoul 10
end

basis "ao basis" cartesian print segment
H  library "DZVP2 (DFT Orbital)"
O  library "DZVP (DFT Orbital)"
Si library "DZVP (DFT Orbital)"
end

basis "cd basis" cartesian print segment
H  library "DGauss A2 DFT Coulomb Fitting"
O  library "DGauss A1 DFT Coulomb Fitting"
Si library "DGauss A1 DFT Coulomb Fitting"
end

task dft

================================================================================

 Output coordinates in a.u. (scale by  1.000000000 to convert to a.u.)

  No.       Tag          Charge          X              Y              Z
 ---- ---------------- ---------- -------------- -------------- --------------
    1 O                    8.0000     0.58768366     1.37681278     0.00000000
    2 Si                  14.0000     0.09040124     0.65901094     2.88532905
    3 Si                  14.0000     0.09040124     0.65901094    -2.88532905
    4 O                    8.0000    -2.83339551     0.96350747     3.46705761
    5 O                    8.0000     1.66283486     2.65245282     4.54628505
    6 O                    8.0000     0.93954127    -2.14395728     3.40689390
    7 O                    8.0000    -2.83339551     0.96350747    -3.46705761
    8 O                    8.0000     0.93954127    -2.14395728    -3.40689390
    9 O                    8.0000     1.66283486     2.65245282    -4.54628505
   10 Si                  14.0000    -5.48519233    -0.00797098     4.49852536
   11 Si                  14.0000     3.15176314     3.21944682     7.09693912
   12 Si                  14.0000     2.22675343    -4.60953295     4.50642396
   13 Si                  14.0000     3.15176314     3.21944682    -7.09693912
   14 Si                  14.0000     2.22675343    -4.60953295    -4.50642396
   15 Si                  14.0000    -5.48519233    -0.00797098    -4.49852536
   16 H                    1.0000    -6.19482498    -2.66492089     3.33168241
   17 H                    1.0000    -5.34693571    -0.24339872     7.44928389
   18 H                    1.0000    -7.54980555     2.01586225     3.65507638
   19 H                    1.0000     5.05332177    -4.80169037     3.53097993
   20 H                    1.0000     0.76591126    -7.05647082     3.56482401
   21 H                    1.0000     2.14201596    -4.52466561     7.48312954
   22 H                    1.0000     3.65580930     6.17363924     7.19357761
   23 H                    1.0000     5.71471166     1.72405931     7.17477798
   24 H                    1.0000     1.48506003     2.44095670     9.42723832
   25 H                    1.0000    -6.19482498    -2.66492089    -3.33168241
   26 H                    1.0000    -5.34693571    -0.24339872    -7.44928389
   27 H                    1.0000    -7.54980555     2.01586225    -3.65507638
   28 H                    1.0000     5.05332177    -4.80169037    -3.53097993
   29 H                    1.0000     0.76591126    -7.05647082    -3.56482401
   30 H                    1.0000     2.14201596    -4.52466561    -7.48312954
   31 H                    1.0000     3.65580930     6.17363924    -7.19357761
   32 H                    1.0000     5.71471166     1.72405931    -7.17477798
   33 H                    1.0000     1.48506003     2.44095670    -9.42723832

         Total DFT energy =    -2840.723743401153

                       DFT Final Molecular Orbital Analysis
                       ------------------------------------

 Vector    1  Occ=2.000000D+00  E=-6.521568D+01  Symmetry=a"

 Vector  268  Occ=0.000000D+00  E= 1.466403D+00  Symmetry=a'

 Vector  269  Occ=0.000000D+00  E= 1.468405D+00  Symmetry=a'

 Vector  270  Occ=0.000000D+00  E= 1.469112D+00  Symmetry=a"

 Vector  271  Occ=0.000000D+00  E= 1.475547D+00  Symmetry=a"

 Vector  272  Occ=0.000000D+00  E= 1.479772D+00  Symmetry=a'

 Vector  273  Occ=0.000000D+00  E= 1.482381D+00  Symmetry=a"

 Vector  274  Occ=0.000000D+00  E= 1.483034D+00  Symmetry=a'

 Vector  275  Occ=0.000000D+00  E= 1.487479D+00  Symmetry=a"

 Vector  276  Occ=0.000000D+00  E= 1.493871D+00  Symmetry=a"

 Vector  277  Occ=0.000000D+00  E= 1.509110D+00  Symmetry=a'

 Vector  278  Occ=0.000000D+00  E= 1.516756D+00  Symmetry=a"

 Vector  279  Occ=0.000000D+00  E= 1.564904D+00  Symmetry=a"

 Vector  280  Occ=0.000000D+00  E= 1.670529D+00  Symmetry=a'

 Vector  281  Occ=0.000000D+00  E= 1.671238D+00  Symmetry=a"

 Vector  282  Occ=0.000000D+00  E= 1.678741D+00  Symmetry=a'

 Vector  283  Occ=0.000000D+00  E= 1.690432D+00  Symmetry=a"

 Vector  284  Occ=0.000000D+00  E= 1.690455D+00  Symmetry=a'

 Vector  285  Occ=0.000000D+00  E= 1.694188D+00  Symmetry=a"

 Vector  286  Occ=0.000000D+00  E= 1.716345D+00  Symmetry=a'

 Vector  287  Occ=0.000000D+00  E= 1.721823D+00  Symmetry=a"

 Vector  288  Occ=0.000000D+00  E= 1.727044D+00  Symmetry=a'

 Vector  289  Occ=0.000000D+00  E= 1.743880D+00  Symmetry=a'

 Vector  290  Occ=0.000000D+00  E= 1.748810D+00  Symmetry=a"

 Vector  291  Occ=0.000000D+00  E= 1.774430D+00  Symmetry=a'

 Vector  292  Occ=0.000000D+00  E= 1.796608D+00  Symmetry=a"

 Vector  293  Occ=0.000000D+00  E= 1.806385D+00  Symmetry=a'

 Vector  294  Occ=0.000000D+00  E= 1.811829D+00  Symmetry=a'

 Vector  295  Occ=0.000000D+00  E= 1.815047D+00  Symmetry=a'

 Vector  296  Occ=0.000000D+00  E= 1.817494D+00  Symmetry=a"

 Vector  297  Occ=0.000000D+00  E= 1.825412D+00  Symmetry=a"

 Vector  298  Occ=0.000000D+00  E= 1.826110D+00  Symmetry=a'

 Vector  299  Occ=0.000000D+00  E= 1.826454D+00  Symmetry=a"

 Vector  300  Occ=0.000000D+00  E= 1.830496D+00  Symmetry=a"

 Vector  301  Occ=0.000000D+00  E= 1.896233D+00  Symmetry=a"

 Vector  302  Occ=0.000000D+00  E= 1.902706D+00  Symmetry=a'

 Vector  303  Occ=0.000000D+00  E= 1.967449D+00  Symmetry=a'

 Vector  304  Occ=0.000000D+00  E= 1.977638D+00  Symmetry=a'

 Vector  305  Occ=0.000000D+00  E= 1.990103D+00  Symmetry=a"

 Vector  306  Occ=0.000000D+00  E= 1.990919D+00  Symmetry=a'

 Vector  307  Occ=0.000000D+00  E= 1.991919D+00  Symmetry=a"

 Vector  308  Occ=0.000000D+00  E= 1.993009D+00  Symmetry=a'

 Vector  309  Occ=0.000000D+00  E= 1.996180D+00  Symmetry=a"

 Vector  310  Occ=0.000000D+00  E= 2.000874D+00  Symmetry=a'

 Vector  311  Occ=0.000000D+00  E= 2.006768D+00  Symmetry=a'

 Vector  312  Occ=0.000000D+00  E= 2.013316D+00  Symmetry=a"

 Vector  313  Occ=0.000000D+00  E= 2.016471D+00  Symmetry=a"

 Vector  314  Occ=0.000000D+00  E= 2.018010D+00  Symmetry=a'

 Vector  315  Occ=0.000000D+00  E= 2.021767D+00  Symmetry=a"

 Vector  316  Occ=0.000000D+00  E= 2.053722D+00  Symmetry=a"

 Vector  317  Occ=0.000000D+00  E= 2.065846D+00  Symmetry=a"

 Vector  318  Occ=0.000000D+00  E= 2.069803D+00  Symmetry=a'

 Vector  319  Occ=0.000000D+00  E= 2.161945D+00  Symmetry=a'

 Vector  320  Occ=0.000000D+00  E= 2.169371D+00  Symmetry=a"

 Vector  321  Occ=0.000000D+00  E= 2.229109D+00  Symmetry=a'

 Vector  322  Occ=0.000000D+00  E= 2.236721D+00  Symmetry=a"

 Vector  323  Occ=0.000000D+00  E= 2.280064D+00  Symmetry=a'

 Vector  324  Occ=0.000000D+00  E= 2.283318D+00  Symmetry=a"

 Vector  325  Occ=0.000000D+00  E= 2.382220D+00  Symmetry=a"

 Vector  326  Occ=0.000000D+00  E= 2.596773D+00  Symmetry=a'

 Vector  327  Occ=0.000000D+00  E= 2.642181D+00  Symmetry=a"

 Vector  328  Occ=0.000000D+00  E= 2.698561D+00  Symmetry=a'

 Vector  329  Occ=0.000000D+00  E= 2.760219D+00  Symmetry=a"

 Vector  330  Occ=0.000000D+00  E= 2.804790D+00  Symmetry=a'

 Vector  331  Occ=0.000000D+00  E= 2.815936D+00  Symmetry=a"

 Vector  332  Occ=0.000000D+00  E= 2.858067D+00  Symmetry=a'

 Vector  333  Occ=0.000000D+00  E= 2.881128D+00  Symmetry=a'

 Vector  334  Occ=0.000000D+00  E= 2.882340D+00  Symmetry=a"

 Vector  335  Occ=0.000000D+00  E= 2.899875D+00  Symmetry=a"

 Vector  336  Occ=0.000000D+00  E= 2.900699D+00  Symmetry=a'

 Vector  337  Occ=0.000000D+00  E= 2.927143D+00  Symmetry=a"

 Vector  338  Occ=0.000000D+00  E= 2.934679D+00  Symmetry=a'

 Vector  339  Occ=0.000000D+00  E= 2.964017D+00  Symmetry=a'

 Vector  340  Occ=0.000000D+00  E= 2.994358D+00  Symmetry=a"

 Vector  341  Occ=0.000000D+00  E= 3.686771D+00  Symmetry=a'

 Vector  342  Occ=0.000000D+00  E= 3.698217D+00  Symmetry=a'

 Vector  343  Occ=0.000000D+00  E= 3.706927D+00  Symmetry=a'

 Vector  344  Occ=0.000000D+00  E= 3.709907D+00  Symmetry=a"

 Vector  345  Occ=0.000000D+00  E= 3.753372D+00  Symmetry=a"

 Vector  346  Occ=0.000000D+00  E= 3.844352D+00  Symmetry=a'

 Vector  347  Occ=0.000000D+00  E= 3.984509D+00  Symmetry=a"

     Multipole analysis of the density
     ---------------------------------

     L   x y z        total         alpha         beta         nuclear
     -   - - -        -----         -----         ----         -------
     0   0 0 0     -0.000000    -93.000000    -93.000000    186.000000

     1   1 0 0      0.011226      0.005613      0.005613     -0.000000
     1   0 1 0     -0.629917     -0.314959     -0.314959     -0.000000
     1   0 0 1      0.000000      0.000000      0.000000     -0.000000

     2   2 0 0   -110.630287   -982.833749   -982.833749   1855.037211
     2   1 1 0     -0.099845      0.303483      0.303483     -0.706811
     2   1 0 1      0.000000      0.000000      0.000000     -0.000000
     2   0 2 0   -113.857814   -765.244304   -765.244304   1416.630794
     2   0 1 1      0.000000      0.000000      0.000000      0.000000

 Total times  cpu:        8.5s     wall:        8.5s
