============================== echo of input deck ==============================
echo
start bett

geometry
zmat
  C
  O 1 AB
  H 1 AH3 2 H3AB
  H 2 BH9 1 H9BA 3 180. 0
  X 1 1. 2 BAH12 3 180. 0
  H 1 AH1 5 H1AH2 2 90. 0
  H 1 AH1 5 H1AH2 2 -90. 0
  variables
  AB 1.42294
  AH1 1.096734
  AH3 1.089541
  BH9 0.97
  H1AH2 54.401488
  BAH12 130.662232
  H3AB 106.27799
  H9BA 107.3899
end
end

basis
  C library 6-31G*
  H library 6-31G*
  O library 6-31G*
end

title "Test with OLYP"
dft
  xc optx lyp
end
task dft optimize

title "Test with B3LYP"
dft
  xc b3lyp
end
task dft optimize

================================================================================

         Total DFT energy =     -115.668418866945
@ Step       Energy      Delta E   Gmax     Grms     Xrms     Xmax   Walltime
@ ---- ---------------- -------- -------- -------- -------- -------- --------
@    0    -115.66841887  0.0D+00  0.00586  0.00267  0.00000  0.00000      0.8
         Total DFT energy =     -115.668532388589
         Total DFT energy =     -115.668582803742
@    1    -115.66858280 -1.6D-04  0.00242  0.00132  0.00869  0.02084      1.7
         Total DFT energy =     -115.668602262909
         Total DFT energy =     -115.668628495367
@    2    -115.66862850 -4.6D-05  0.00044  0.00017  0.00557  0.01295      2.5
         Total DFT energy =     -115.668629835015
         Total DFT energy =   -115.668629835015
@    3    -115.66862984 -1.3D-06  0.00015  0.00007  0.00121  0.00332      3.0
         Total DFT energy =     -115.668630088624
         Total DFT energy =   -115.668630088624
@    4    -115.66863009 -2.5D-07  0.00004  0.00002  0.00050  0.00110      3.5
@    4    -115.66863009 -2.5D-07  0.00004  0.00002  0.00050  0.00110      3.5
         Total DFT energy =     -115.714317444945

 Vector   35  Occ=0.000000D+00  E= 2.439861D+00  Symmetry=a'

 Vector   36  Occ=0.000000D+00  E= 2.791015D+00  Symmetry=a'

 Vector   37  Occ=0.000000D+00  E= 3.693933D+00  Symmetry=a'

 Vector   38  Occ=0.000000D+00  E= 4.210446D+00  Symmetry=a'

@ Step       Energy      Delta E   Gmax     Grms     Xrms     Xmax   Walltime
@ ---- ---------------- -------- -------- -------- -------- -------- --------
@    0    -115.71431744  0.0D+00  0.00331  0.00165  0.00000  0.00000      4.1
         Total DFT energy =     -115.714404584218

 Vector    1  Occ=2.000000D+00  E=-1.914006D+01  Symmetry=a'

 Vector    2  Occ=2.000000D+00  E=-1.022479D+01  Symmetry=a'

 Vector    3  Occ=2.000000D+00  E=-1.010408D+00  Symmetry=a'

 Vector    4  Occ=2.000000D+00  E=-6.782681D-01  Symmetry=a'

 Vector    5  Occ=2.000000D+00  E=-5.022084D-01  Symmetry=a'

 Vector    6  Occ=2.000000D+00  E=-4.339717D-01  Symmetry=a"

 Vector    7  Occ=2.000000D+00  E=-4.191532D-01  Symmetry=a'

 Vector    8  Occ=2.000000D+00  E=-3.303465D-01  Symmetry=a'

 Vector    9  Occ=2.000000D+00  E=-2.645327D-01  Symmetry=a"

 Vector   10  Occ=0.000000D+00  E= 7.531924D-02  Symmetry=a'

 Vector   11  Occ=0.000000D+00  E= 1.307101D-01  Symmetry=a'

 Vector   12  Occ=0.000000D+00  E= 1.667014D-01  Symmetry=a'

 Vector   13  Occ=0.000000D+00  E= 1.750523D-01  Symmetry=a"

 Vector   14  Occ=0.000000D+00  E= 2.056572D-01  Symmetry=a'

 Vector   15  Occ=0.000000D+00  E= 5.340439D-01  Symmetry=a'

 Vector   16  Occ=0.000000D+00  E= 5.673468D-01  Symmetry=a'

 Vector   17  Occ=0.000000D+00  E= 5.773620D-01  Symmetry=a"

 Vector   18  Occ=0.000000D+00  E= 7.865849D-01  Symmetry=a'

 Vector   19  Occ=0.000000D+00  E= 8.487105D-01  Symmetry=a"

 Vector   20  Occ=0.000000D+00  E= 8.691143D-01  Symmetry=a'

 Vector   21  Occ=0.000000D+00  E= 9.015024D-01  Symmetry=a'

 Vector   22  Occ=0.000000D+00  E= 9.538337D-01  Symmetry=a'

 Vector   23  Occ=0.000000D+00  E= 9.771941D-01  Symmetry=a"

 Vector   24  Occ=0.000000D+00  E= 1.022399D+00  Symmetry=a'

 Vector   25  Occ=0.000000D+00  E= 1.114547D+00  Symmetry=a'

 Vector   26  Occ=0.000000D+00  E= 1.462477D+00  Symmetry=a'

 Vector   27  Occ=0.000000D+00  E= 1.502619D+00  Symmetry=a"

 Vector   28  Occ=0.000000D+00  E= 1.585083D+00  Symmetry=a'

 Vector   29  Occ=0.000000D+00  E= 1.743827D+00  Symmetry=a"

 Vector   30  Occ=0.000000D+00  E= 2.038711D+00  Symmetry=a'

 Vector   31  Occ=0.000000D+00  E= 2.113212D+00  Symmetry=a'

 Vector   32  Occ=0.000000D+00  E= 2.128524D+00  Symmetry=a"

 Vector   33  Occ=0.000000D+00  E= 2.349282D+00  Symmetry=a'

 Vector   34  Occ=0.000000D+00  E= 2.402542D+00  Symmetry=a"

 Vector   35  Occ=0.000000D+00  E= 2.446343D+00  Symmetry=a'

 Vector   36  Occ=0.000000D+00  E= 2.792118D+00  Symmetry=a'

 Vector   37  Occ=0.000000D+00  E= 3.697132D+00  Symmetry=a'

 Vector   38  Occ=0.000000D+00  E= 4.213538D+00  Symmetry=a'

         Total DFT energy =   -115.714404584218
@    1    -115.71440458 -8.7D-05  0.00045  0.00016  0.00514  0.00980      4.7
         Total DFT energy =     -115.714405091701

                       DFT Final Molecular Orbital Analysis
                       ------------------------------------

 Vector    1  Occ=2.000000D+00  E=-1.914012D+01  Symmetry=a'

 Vector    2  Occ=2.000000D+00  E=-1.022467D+01  Symmetry=a'

 Vector    3  Occ=2.000000D+00  E=-1.010475D+00  Symmetry=a'

 Vector    4  Occ=2.000000D+00  E=-6.782462D-01  Symmetry=a'

 Vector    5  Occ=2.000000D+00  E=-5.023070D-01  Symmetry=a'

 Vector    6  Occ=2.000000D+00  E=-4.340149D-01  Symmetry=a"

 Vector    7  Occ=2.000000D+00  E=-4.191836D-01  Symmetry=a'

 Vector    8  Occ=2.000000D+00  E=-3.302692D-01  Symmetry=a'

 Vector    9  Occ=2.000000D+00  E=-2.645243D-01  Symmetry=a"

 Vector   10  Occ=0.000000D+00  E= 7.520724D-02  Symmetry=a'

 Vector   11  Occ=0.000000D+00  E= 1.307623D-01  Symmetry=a'

 Vector   12  Occ=0.000000D+00  E= 1.667293D-01  Symmetry=a'

 Vector   13  Occ=0.000000D+00  E= 1.751702D-01  Symmetry=a"

 Vector   14  Occ=0.000000D+00  E= 2.059017D-01  Symmetry=a'

 Vector   15  Occ=0.000000D+00  E= 5.342528D-01  Symmetry=a'

 Vector   16  Occ=0.000000D+00  E= 5.672617D-01  Symmetry=a'

 Vector   17  Occ=0.000000D+00  E= 5.774024D-01  Symmetry=a"

 Vector   18  Occ=0.000000D+00  E= 7.862891D-01  Symmetry=a'

 Vector   19  Occ=0.000000D+00  E= 8.488074D-01  Symmetry=a"

 Vector   20  Occ=0.000000D+00  E= 8.691308D-01  Symmetry=a'

 Vector   21  Occ=0.000000D+00  E= 9.017518D-01  Symmetry=a'

 Vector   22  Occ=0.000000D+00  E= 9.537740D-01  Symmetry=a'

 Vector   23  Occ=0.000000D+00  E= 9.772462D-01  Symmetry=a"

 Vector   24  Occ=0.000000D+00  E= 1.022282D+00  Symmetry=a'

 Vector   25  Occ=0.000000D+00  E= 1.114478D+00  Symmetry=a'

 Vector   26  Occ=0.000000D+00  E= 1.462723D+00  Symmetry=a'

 Vector   27  Occ=0.000000D+00  E= 1.502743D+00  Symmetry=a"

 Vector   28  Occ=0.000000D+00  E= 1.585134D+00  Symmetry=a'

 Vector   29  Occ=0.000000D+00  E= 1.743784D+00  Symmetry=a"

 Vector   30  Occ=0.000000D+00  E= 2.039229D+00  Symmetry=a'

 Vector   31  Occ=0.000000D+00  E= 2.113810D+00  Symmetry=a'

 Vector   32  Occ=0.000000D+00  E= 2.128362D+00  Symmetry=a"

 Vector   33  Occ=0.000000D+00  E= 2.349766D+00  Symmetry=a'

 Vector   34  Occ=0.000000D+00  E= 2.403472D+00  Symmetry=a"

 Vector   35  Occ=0.000000D+00  E= 2.445775D+00  Symmetry=a'

 Vector   36  Occ=0.000000D+00  E= 2.792236D+00  Symmetry=a'

 Vector   37  Occ=0.000000D+00  E= 3.697298D+00  Symmetry=a'

 Vector   38  Occ=0.000000D+00  E= 4.213591D+00  Symmetry=a'

     Multipole analysis of the density
     ---------------------------------

     L   x y z        total         alpha         beta         nuclear
     -   - - -        -----         -----         ----         -------
     0   0 0 0     -0.000000     -9.000000     -9.000000     18.000000

     1   1 0 0     -0.583679     -0.275195     -0.275195     -0.033288
     1   0 1 0      0.321903      0.188747      0.188747     -0.055590
     1   0 0 1      0.000000      0.000000      0.000000      0.000000

     2   2 0 0     -8.757061     -8.492958     -8.492958      8.228855
     2   1 1 0      1.626631      0.023509      0.023509      1.579613
     2   1 0 1      0.000000      0.000000      0.000000      0.000000
     2   0 2 0     -9.518578    -25.654380    -25.654380     41.790182
     2   0 1 1      0.000000      0.000000      0.000000      0.000000

         Total DFT energy =   -115.714405091701
@    2    -115.71440509 -5.1D-07  0.00017  0.00005  0.00050  0.00112      5.2
@    2    -115.71440509 -5.1D-07  0.00017  0.00005  0.00050  0.00112      5.2

 Output coordinates in angstroms (scale by  1.889725989 to convert to a.u.)

  No.       Tag          Charge          X              Y              Z
 ---- ---------------- ---------- -------------- -------------- --------------
    1 C                    6.0000     0.01060045     0.66086475     0.00000000
    2 O                    8.0000     0.08627066    -0.75571130     0.00000000
    3 H                    1.0000     1.03957231     1.03040753     0.00000000
    4 H                    1.0000    -0.81998807    -1.09833709     0.00000000
    5 X                    0.0000    -0.77968836     1.27359345     0.00000000
    6 H                    1.0000    -0.49548364     1.05950711    -0.89311644
    7 H                    1.0000    -0.49548364     1.05950711     0.89311644

 Total times  cpu:        5.1s     wall:        5.2s
