============================== echo of input deck ==============================
echo

start ch3ochch32
title "Alkyl bond dissociation energy from the ABDE4/05 database"
#Paper: DOI 10.1007/s00214-007-0310-x"
#ABDE4/05 database

geometry big
O  0.2581838741  0.937874606  0.0407424579
C  1.6365622261  1.0422982793  0.3233044075
H  1.8990698734  2.1004086002  0.2355469898
H  2.2623399434  0.4702401473  -0.3784687165
C  -0.2958120265  -0.3650962082  0.2296077208
H  0.0737268667  -0.770233074  1.1884225371
C  0.0999562654  -1.3221886514  -0.8997878285
C  -1.8070752191  -0.1766021952  0.3188323899
H  -2.3094122994  -1.1343594496  0.4933835016
H  -2.0591701944  0.5065049853  1.1358104054
H  -2.1901489088  0.2507080646  -0.6147505549
H  -0.3461659892  -2.3107435182  -0.7410685375
H  -0.2515839876  -0.9340770207  -1.8625311037
H  1.1853093402  -1.4555173912  -0.960633128
H  1.868776887  0.7036044613  1.346608805
end
geometry ch3o
O -0.0717954037 0.7904851464 0.
C 0.070527331 -0.5706524031 0.
H -0.9643070065 -0.9734523539 0.
H 0.557753125 -0.9632571993 0.9088020881
H 0.557753125 -0.9632571993 -0.9088020881
end
geometry isopr
H -1.5741282257 0.3384466025 0.
C -0.4949973207 0.2014373026 0.
C 0.1885698354 -0.059540887 -1.3011394423
C 0.1885698354 -0.059540887 1.3011394423
H -0.3378996345 0.4075090427 -2.1413392395
H -0.3378996345 0.4075090427 2.1413392395
H 1.2217611291 0.3159557584 -1.2963791248
H 1.2217611291 0.3159557584 1.2963791248
H 0.256775568 -1.1397546885 -1.5289592366
H 0.256775568 -1.1397546885 1.5289592366
end

basis
* library 6-311++G(3df,3pd)
end

dft
direct
vectors input atomic
xc xm06-2x cm06-2x
end

set geometry big

task dft

set geometry ch3o
dft
direct
vectors input atomic
mult 2
end

task dft

set geometry isopr

task dft
================================================================================

 Output coordinates in angstroms (scale by  1.889725989 to convert to a.u.)

  No.       Tag          Charge          X              Y              Z
 ---- ---------------- ---------- -------------- -------------- --------------
    1 H                    1.0000    -1.60218643    -0.15945037     0.00000000
    2 C                    6.0000    -0.53289233     0.04031248     0.00000000
    3 C                    6.0000     0.19774395     0.00101497     1.30113944
    4 C                    6.0000     0.19774395     0.00101497    -1.30113944
    5 H                    1.0000    -0.44638513     0.28457002     2.14133924
    6 H                    1.0000    -0.44638513     0.28457002    -2.14133924
    7 H                    1.0000     1.06648149     0.67464474     1.29637912
    8 H                    1.0000     1.06648149     0.67464474    -1.29637912
    9 H                    1.0000     0.59321015    -1.00651685     1.52895924
   10 H                    1.0000     0.59321015    -1.00651685    -1.52895924

         Total DFT energy =     -233.631836122074
         Total DFT energy =     -115.040195553834
         Total DFT energy =     -118.445671869244

                    DFT Final Alpha Molecular Orbital Analysis
                    ------------------------------------------

 Vector    1  Occ=1.000000D+00  E=-1.054213D+01  Symmetry=a'

 Vector  189  Occ=0.000000D+00  E= 4.568966D+00  Symmetry=a'

 Vector  190  Occ=0.000000D+00  E= 4.579760D+00  Symmetry=a'

 Vector  191  Occ=0.000000D+00  E= 4.586740D+00  Symmetry=a"

 Vector  192  Occ=0.000000D+00  E= 4.614490D+00  Symmetry=a'

 Vector  193  Occ=0.000000D+00  E= 4.642514D+00  Symmetry=a"

 Vector  194  Occ=0.000000D+00  E= 4.649041D+00  Symmetry=a'

 Vector  195  Occ=0.000000D+00  E= 4.674397D+00  Symmetry=a'

 Vector  196  Occ=0.000000D+00  E= 4.759838D+00  Symmetry=a"

 Vector  197  Occ=0.000000D+00  E= 4.784167D+00  Symmetry=a'

 Vector  198  Occ=0.000000D+00  E= 4.838763D+00  Symmetry=a"

 Vector  199  Occ=0.000000D+00  E= 4.864677D+00  Symmetry=a"

 Vector  200  Occ=0.000000D+00  E= 4.940737D+00  Symmetry=a'

 Vector  201  Occ=0.000000D+00  E= 4.953124D+00  Symmetry=a"

 Vector  202  Occ=0.000000D+00  E= 4.988045D+00  Symmetry=a'

 Vector  203  Occ=0.000000D+00  E= 5.013149D+00  Symmetry=a"

 Vector  204  Occ=0.000000D+00  E= 5.042302D+00  Symmetry=a'

 Vector  205  Occ=0.000000D+00  E= 5.060437D+00  Symmetry=a'

 Vector  206  Occ=0.000000D+00  E= 5.074877D+00  Symmetry=a"

 Vector  207  Occ=0.000000D+00  E= 5.093444D+00  Symmetry=a'

 Vector  208  Occ=0.000000D+00  E= 5.375512D+00  Symmetry=a"

 Vector  209  Occ=0.000000D+00  E= 5.527534D+00  Symmetry=a"

 Vector  210  Occ=0.000000D+00  E= 5.752472D+00  Symmetry=a'

 Vector  211  Occ=0.000000D+00  E= 7.072942D+00  Symmetry=a'

 Vector  212  Occ=0.000000D+00  E= 7.129811D+00  Symmetry=a'

 Vector  213  Occ=0.000000D+00  E= 7.158036D+00  Symmetry=a"

 Vector  214  Occ=0.000000D+00  E= 7.250292D+00  Symmetry=a"

 Vector  215  Occ=0.000000D+00  E= 7.250700D+00  Symmetry=a'

 Vector  216  Occ=0.000000D+00  E= 7.289781D+00  Symmetry=a"

 Vector  217  Occ=0.000000D+00  E= 7.362643D+00  Symmetry=a'

 Vector  218  Occ=0.000000D+00  E= 7.404466D+00  Symmetry=a"

 Vector  219  Occ=0.000000D+00  E= 7.462391D+00  Symmetry=a'

 Vector  220  Occ=0.000000D+00  E= 7.528387D+00  Symmetry=a'

 Vector  221  Occ=0.000000D+00  E= 7.580339D+00  Symmetry=a"

 Vector  222  Occ=0.000000D+00  E= 7.643814D+00  Symmetry=a'

 Vector  223  Occ=0.000000D+00  E= 7.721753D+00  Symmetry=a"

 Vector  224  Occ=0.000000D+00  E= 7.769784D+00  Symmetry=a'

 Vector  225  Occ=0.000000D+00  E= 8.003002D+00  Symmetry=a"

 Vector  226  Occ=0.000000D+00  E= 8.103786D+00  Symmetry=a'

 Vector  227  Occ=0.000000D+00  E= 8.184874D+00  Symmetry=a'

 Vector  228  Occ=0.000000D+00  E= 8.218756D+00  Symmetry=a'

 Vector  229  Occ=0.000000D+00  E= 8.227216D+00  Symmetry=a"

 Vector  230  Occ=0.000000D+00  E= 8.231989D+00  Symmetry=a"

 Vector  231  Occ=0.000000D+00  E= 8.258703D+00  Symmetry=a"

 Vector  232  Occ=0.000000D+00  E= 8.272895D+00  Symmetry=a'

 Vector  233  Occ=0.000000D+00  E= 8.325416D+00  Symmetry=a'

 Vector  234  Occ=0.000000D+00  E= 8.331791D+00  Symmetry=a'

 Vector  235  Occ=0.000000D+00  E= 8.359179D+00  Symmetry=a"

 Vector  236  Occ=0.000000D+00  E= 8.491278D+00  Symmetry=a"

 Vector  237  Occ=0.000000D+00  E= 8.499974D+00  Symmetry=a'

 Vector  238  Occ=0.000000D+00  E= 8.509243D+00  Symmetry=a"

 Vector  239  Occ=0.000000D+00  E= 8.529727D+00  Symmetry=a"

 Vector  240  Occ=0.000000D+00  E= 8.541828D+00  Symmetry=a'

 Vector  241  Occ=0.000000D+00  E= 8.805227D+00  Symmetry=a"

 Vector  242  Occ=0.000000D+00  E= 8.825135D+00  Symmetry=a'

 Vector  243  Occ=0.000000D+00  E= 8.973072D+00  Symmetry=a'

 Vector  244  Occ=0.000000D+00  E= 9.134963D+00  Symmetry=a"

 Vector  245  Occ=0.000000D+00  E= 9.147112D+00  Symmetry=a'

 Vector  246  Occ=0.000000D+00  E= 9.270026D+00  Symmetry=a"

 Vector  247  Occ=0.000000D+00  E= 9.285885D+00  Symmetry=a'

 Vector  248  Occ=0.000000D+00  E= 9.306632D+00  Symmetry=a"

 Vector  249  Occ=0.000000D+00  E= 9.409613D+00  Symmetry=a'

 Vector  250  Occ=0.000000D+00  E= 9.531568D+00  Symmetry=a'

 Vector  251  Occ=0.000000D+00  E= 9.596613D+00  Symmetry=a"

 Vector  252  Occ=0.000000D+00  E= 9.603796D+00  Symmetry=a'

 Vector  253  Occ=0.000000D+00  E= 9.637157D+00  Symmetry=a'

 Vector  254  Occ=0.000000D+00  E= 9.685394D+00  Symmetry=a"

 Vector  255  Occ=0.000000D+00  E= 9.830548D+00  Symmetry=a'

 Vector  256  Occ=0.000000D+00  E= 9.970058D+00  Symmetry=a"

 Vector  257  Occ=0.000000D+00  E= 9.992600D+00  Symmetry=a"

 Vector  258  Occ=0.000000D+00  E= 1.003731D+01  Symmetry=a'

 Vector  259  Occ=0.000000D+00  E= 1.005833D+01  Symmetry=a'

 Vector  260  Occ=0.000000D+00  E= 1.011448D+01  Symmetry=a"

 Vector  261  Occ=0.000000D+00  E= 1.013019D+01  Symmetry=a'

 Vector  262  Occ=0.000000D+00  E= 1.031411D+01  Symmetry=a'

 Vector  263  Occ=0.000000D+00  E= 1.038499D+01  Symmetry=a'

 Vector  264  Occ=0.000000D+00  E= 1.041956D+01  Symmetry=a"

 Vector  265  Occ=0.000000D+00  E= 1.057377D+01  Symmetry=a"

 Vector  266  Occ=0.000000D+00  E= 2.902037D+01  Symmetry=a'

 Vector  267  Occ=0.000000D+00  E= 2.910497D+01  Symmetry=a"

 Vector  268  Occ=0.000000D+00  E= 2.929604D+01  Symmetry=a'

     Multipole analysis of the density
     ---------------------------------

     L   x y z        total         alpha         beta         nuclear
     -   - - -        -----         -----         ----         -------
     0   0 0 0     -0.000000    -13.000000    -12.000000     25.000000

     1   1 0 0      0.052435      0.417226     -0.364791      0.000000
     1   0 1 0     -0.077690     -0.099346      0.021656      0.000000
     1   0 0 1      0.000000     -0.000000      0.000000      0.000000

     2   2 0 0    -15.534821    -23.313664    -21.208058     28.986901
     2   1 1 0      0.248025      0.241800     -0.421478      0.427703
     2   1 0 1     -0.000000     -0.000000     -0.000000      0.000000
     2   0 2 0    -16.299915    -15.051220    -12.438950     11.190255
     2   0 1 1     -0.000000     -0.000000     -0.000000      0.000000

 Total times  cpu:      473.4s     wall:      473.5s
