============================== echo of input deck ==============================
echo
start dft_bsse

charge 0

geometry  g1 autosym units angstrom
zmatrix
    H
    O    1 r2
    H    2 r3    1 a3
    bqO  3 r4    2 a4    1 d4
    bqH  4 r5    3 a5    2 d5
    bqH  4 r6    3 a6    2 d6
    variables
    r2 0.9637
    r3 0.8728
    a3  95.07
    r4 1.8441
    a4 172.11
    d4 179.97
    r5 0.9654
    a5 110.73
    d5  58.09
    r6 0.9654
    a6 110.73
    d6 301.91
end
end
geometry  g2 autosym units angstrom
zmatrix
    H
    O    1 r2
    H    2 r3    1 a3
    bqO  3 r4    2 a4    1 d4
    XH  4 r5    3 a5    2 d5
    XH  4 r6    3 a6    2 d6
    variables
    r2 0.9637
    r3 0.8728
    a3  95.07
    r4 1.8441
    a4 172.11
    d4 179.97
    r5 0.9654
    a5 110.73
    d5  58.09
    r6 0.9654
    a6 110.73
    d6 301.91
end
end

basis "ao basis" spherical print
  H library "aug-cc-pVDZ"
  O library "aug-cc-pVDZ"
  bqH library H aug-cc-pVDZ
  bqO library O aug-cc-pVDZ
END

title "H2O with bqs"
set geometry g1
task dft

title "H2O with bqs and Xs"
set geometry g2
task dft

================================================================================

 Output coordinates in angstroms (scale by  1.889725989 to convert to a.u.)

  No.       Tag          Charge          X              Y              Z
 ---- ---------------- ---------- -------------- -------------- --------------
    1 H                    1.0000    -0.83416136    -0.27826910     0.00000000
    2 O                    8.0000     0.10568557    -0.06518357     0.00000000
    3 H                    1.0000    -0.01132321     0.79973769     0.00000000
    4 bqO                  0.0000    -0.00534794     2.64382800     0.00000000
    5 XH                   0.0000     0.47301688     2.98399720    -0.76645218
    6 XH                   0.0000     0.47301688     2.98399720     0.76645218

         Total DFT energy =      -75.866200497363

 Vector   67  Occ=0.000000D+00  E= 3.272366D+00  Symmetry=a"

 Vector   68  Occ=0.000000D+00  E= 3.279425D+00  Symmetry=a'

 Vector   69  Occ=0.000000D+00  E= 3.412173D+00  Symmetry=a'

 Vector   70  Occ=0.000000D+00  E= 3.618348D+00  Symmetry=a'

 Vector   71  Occ=0.000000D+00  E= 3.863114D+00  Symmetry=a"

 Vector   72  Occ=0.000000D+00  E= 3.986101D+00  Symmetry=a'

 Vector   73  Occ=0.000000D+00  E= 4.075898D+00  Symmetry=a'

 Vector   74  Occ=0.000000D+00  E= 4.906147D+00  Symmetry=a"

 Vector   75  Occ=0.000000D+00  E= 4.906343D+00  Symmetry=a'

 Vector   76  Occ=0.000000D+00  E= 4.980078D+00  Symmetry=a'

 Vector   77  Occ=0.000000D+00  E= 5.078560D+00  Symmetry=a'

 Vector   78  Occ=0.000000D+00  E= 5.313978D+00  Symmetry=a"

 Vector   79  Occ=0.000000D+00  E= 5.901680D+00  Symmetry=a'

 Vector   80  Occ=0.000000D+00  E= 6.559310D+00  Symmetry=a'

 Vector   81  Occ=0.000000D+00  E= 6.949784D+00  Symmetry=a"

 Vector   82  Occ=0.000000D+00  E= 3.348406D+01  Symmetry=a'

         Total DFT energy =      -75.866130396568

                       DFT Final Molecular Orbital Analysis
                       ------------------------------------

 Vector    1  Occ=2.000000D+00  E=-1.861797D+01  Symmetry=a'

 Vector    2  Occ=2.000000D+00  E=-9.567285D-01  Symmetry=a'

 Vector    3  Occ=2.000000D+00  E=-4.835102D-01  Symmetry=a'

 Vector    4  Occ=2.000000D+00  E=-3.654550D-01  Symmetry=a'

 Vector    5  Occ=2.000000D+00  E=-2.759420D-01  Symmetry=a"

 Vector    6  Occ=0.000000D+00  E=-3.173380D-02  Symmetry=a'

 Vector    7  Occ=0.000000D+00  E= 2.505756D-02  Symmetry=a'

 Vector    8  Occ=0.000000D+00  E= 8.299169D-02  Symmetry=a'

 Vector    9  Occ=0.000000D+00  E= 9.543995D-02  Symmetry=a"

 Vector   10  Occ=0.000000D+00  E= 1.051744D-01  Symmetry=a'

 Vector   11  Occ=0.000000D+00  E= 1.242460D-01  Symmetry=a'

 Vector   12  Occ=0.000000D+00  E= 1.375426D-01  Symmetry=a'

 Vector   13  Occ=0.000000D+00  E= 1.544827D-01  Symmetry=a'

 Vector   14  Occ=0.000000D+00  E= 1.593581D-01  Symmetry=a"

 Vector   15  Occ=0.000000D+00  E= 1.945727D-01  Symmetry=a'

 Vector   16  Occ=0.000000D+00  E= 2.446268D-01  Symmetry=a'

 Vector   17  Occ=0.000000D+00  E= 2.767650D-01  Symmetry=a"

 Vector   18  Occ=0.000000D+00  E= 2.823907D-01  Symmetry=a'

 Vector   19  Occ=0.000000D+00  E= 3.132124D-01  Symmetry=a'

 Vector   20  Occ=0.000000D+00  E= 3.315086D-01  Symmetry=a"

 Vector   21  Occ=0.000000D+00  E= 4.540915D-01  Symmetry=a'

 Vector   22  Occ=0.000000D+00  E= 4.868082D-01  Symmetry=a'

 Vector   23  Occ=0.000000D+00  E= 5.391449D-01  Symmetry=a'

 Vector   24  Occ=0.000000D+00  E= 6.262880D-01  Symmetry=a'

 Vector   25  Occ=0.000000D+00  E= 7.166646D-01  Symmetry=a'

 Vector   26  Occ=0.000000D+00  E= 7.705284D-01  Symmetry=a"

 Vector   27  Occ=0.000000D+00  E= 7.838133D-01  Symmetry=a'

 Vector   28  Occ=0.000000D+00  E= 8.139363D-01  Symmetry=a'

 Vector   29  Occ=0.000000D+00  E= 8.663380D-01  Symmetry=a"

 Vector   30  Occ=0.000000D+00  E= 9.070650D-01  Symmetry=a'

 Vector   31  Occ=0.000000D+00  E= 9.358618D-01  Symmetry=a"

 Vector   32  Occ=0.000000D+00  E= 9.652258D-01  Symmetry=a'

 Vector   33  Occ=0.000000D+00  E= 1.025636D+00  Symmetry=a'

 Vector   34  Occ=0.000000D+00  E= 1.051806D+00  Symmetry=a"

 Vector   35  Occ=0.000000D+00  E= 1.063828D+00  Symmetry=a'

 Vector   36  Occ=0.000000D+00  E= 1.088971D+00  Symmetry=a"

 Vector   37  Occ=0.000000D+00  E= 1.155159D+00  Symmetry=a'

 Vector   38  Occ=0.000000D+00  E= 1.287334D+00  Symmetry=a'

 Vector   39  Occ=0.000000D+00  E= 1.298527D+00  Symmetry=a"

 Vector   40  Occ=0.000000D+00  E= 1.310414D+00  Symmetry=a'

 Vector   41  Occ=0.000000D+00  E= 1.534648D+00  Symmetry=a'

 Vector   42  Occ=0.000000D+00  E= 1.701225D+00  Symmetry=a"

 Vector   43  Occ=0.000000D+00  E= 1.732077D+00  Symmetry=a'

 Vector   44  Occ=0.000000D+00  E= 1.905114D+00  Symmetry=a"

 Vector   45  Occ=0.000000D+00  E= 2.017709D+00  Symmetry=a'

 Vector   46  Occ=0.000000D+00  E= 2.150587D+00  Symmetry=a'

 Vector   47  Occ=0.000000D+00  E= 2.340880D+00  Symmetry=a'

 Vector   48  Occ=0.000000D+00  E= 2.615826D+00  Symmetry=a'

 Vector   49  Occ=0.000000D+00  E= 2.651734D+00  Symmetry=a'

 Vector   50  Occ=0.000000D+00  E= 3.079030D+00  Symmetry=a'

 Vector   51  Occ=0.000000D+00  E= 3.203288D+00  Symmetry=a"

 Vector   52  Occ=0.000000D+00  E= 3.258362D+00  Symmetry=a"

 Vector   53  Occ=0.000000D+00  E= 3.261616D+00  Symmetry=a'

 Vector   54  Occ=0.000000D+00  E= 3.588927D+00  Symmetry=a'

 Vector   55  Occ=0.000000D+00  E= 3.970459D+00  Symmetry=a'

 Vector   56  Occ=0.000000D+00  E= 4.717293D+00  Symmetry=a"

 Vector   57  Occ=0.000000D+00  E= 4.721390D+00  Symmetry=a'

 Vector   58  Occ=0.000000D+00  E= 4.809287D+00  Symmetry=a"

 Vector   59  Occ=0.000000D+00  E= 4.833274D+00  Symmetry=a'

 Vector   60  Occ=0.000000D+00  E= 4.864306D+00  Symmetry=a'

 Vector   61  Occ=0.000000D+00  E= 5.408082D+00  Symmetry=a"

 Vector   62  Occ=0.000000D+00  E= 5.442941D+00  Symmetry=a'

 Vector   63  Occ=0.000000D+00  E= 5.887921D+00  Symmetry=a'

 Vector   64  Occ=0.000000D+00  E= 3.334349D+01  Symmetry=a'

     Multipole analysis of the density
     ---------------------------------

     L   x y z        total         alpha         beta         nuclear
     -   - - -        -----         -----         ----         -------
     0   0 0 0     -0.000000     -5.000000     -5.000000     10.000000

     1   1 0 0     -0.648883     -0.324442     -0.324442      0.000000
     1   0 1 0      0.422247      0.211123      0.211123      0.000000
     1   0 0 1     -0.000000     -0.000000     -0.000000      0.000000

     2   2 0 0     -4.292791     -3.548590     -3.548590      2.804389
     2   1 1 0      0.466808     -0.066483     -0.066483      0.599775
     2   1 0 1     -0.000000     -0.000000     -0.000000      0.000000
     2   0 2 0     -4.134516     -3.408202     -3.408202      2.681888
     2   0 1 1     -0.000000     -0.000000     -0.000000      0.000000

 Total times  cpu:        2.1s     wall:        2.1s
