============================== echo of input deck ==============================
echo
start diels-alder-dat

title "parent diels-alder - constrained geometry optimization + saddle search"

# tests constrained optimization, saddle search,
# use of constraints with symmetry

# norbornene = -269.369082   r = 1.56877

geometry autosym  # Equil nonbornene geometry
  C   -0.56970319    -1.24200248     0.66145412
  C   -0.56970319    -1.24200248    -0.66145412
  C    0.30163937    -0.07585222     1.13282212
  C    0.30163937    -0.07585222    -1.13282212
  C    1.36288212    -0.05150460     0.00000000
  C   -0.51211483     1.21947833     0.78501047
  C   -0.51211483     1.21947833    -0.78501047
  H    0.66051824    -0.12617315    -2.14778696
  H    0.66051824    -0.12617315     2.14778696
  H    1.96152178     0.85159285     0.00000000
  H   -1.51147362     1.18303369    -1.19517710
  H   -1.51147362     1.18303369     1.19517710
  H   -1.13480012    -1.87777806    -1.31030500
  H   -1.13480012    -1.87777806     1.31030500
  H    1.99285293    -0.93012745     0.00000000
  H   -0.01020068     2.09823148     1.17132500
  H   -0.01020068     2.09823148    -1.17132500
end

basis
  c library 3-21g
  h library 3-21g
end

scf; print low; thresh 1e-8; end

geometry adjust  # move to guess geometry & apply constraints
  zcoord
    bond 6 3 2.2 r constant
    bond 7 4 2.2 r constant
  end
end

#pause
task scf optimize  # relax with constraints

geometry adjust  # release constraints
  zcoord
    bond 6 3 2.2 r
    bond 7 4 2.2 r
  end
end

task scf saddle  # go for the TS

================================================================================

         Total SCF energy =   -269.211796662290
@ Step       Energy      Delta E   Gmax     Grms     Xrms     Xmax   Walltime
@ ---- ---------------- -------- -------- -------- -------- -------- --------
@    0    -269.21179666  0.0D+00  0.03357  0.00625  0.00000  0.00000      3.4
         Total SCF energy =   -269.236222571016
         Total SCF energy =   -269.247881773842
@    1    -269.24788177 -3.6D-02  0.02408  0.00485  0.15304  0.29794      9.8
         Total SCF energy =   -269.258567050619
         Total SCF energy =   -269.261551885128
@    2    -269.26155189 -1.4D-02  0.01313  0.00261  0.08448  0.20884     15.7
         Total SCF energy =   -269.265813789577
         Total SCF energy =   -269.267675622275
@    3    -269.26767562 -6.1D-03  0.01590  0.00242  0.06923  0.16424     21.7
         Total SCF energy =   -269.269592510202
         Total SCF energy =   -269.269692494777
@    4    -269.26969249 -2.0D-03  0.00268  0.00055  0.03489  0.09006     27.4
         Total SCF energy =   -269.270006090435
         Total SCF energy =   -269.270014374681
@    5    -269.27001437 -3.2D-04  0.00123  0.00028  0.01815  0.05445     32.8
         Total SCF energy =   -269.270099551417
         Total SCF energy =   -269.270112495829
@    6    -269.27011250 -9.8D-05  0.00145  0.00028  0.00664  0.01627     37.8
         Total SCF energy =   -269.270151163950
         Total SCF energy =   -269.270156360653
@    7    -269.27015636 -4.4D-05  0.00040  0.00010  0.00442  0.01493     42.8
         Total SCF energy =   -269.270164464593
         Total SCF energy =   -269.270165467952
@    8    -269.27016547 -9.1D-06  0.00056  0.00007  0.00200  0.00459     47.8
         Total SCF energy =   -269.270167931885
         Total SCF energy =   -269.270168185913
@    9    -269.27016819 -2.7D-06  0.00033  0.00005  0.00124  0.00349     52.6
         Total SCF energy =   -269.270169426208
         Total SCF energy =   -269.270169907085
@   10    -269.27016991 -1.7D-06  0.00011  0.00003  0.00118  0.00339     57.2
         Total SCF energy =   -269.270170399544
         Total SCF energy =   -269.270170536189
@   11    -269.27017054 -6.3D-07  0.00006  0.00001  0.00071  0.00225     61.9
         Total SCF energy =   -269.270170643375
         Total SCF energy =   -269.270170669591
@   12    -269.27017067 -1.3D-07  0.00003  0.00001  0.00027  0.00090     66.5
@   12    -269.27017067 -1.3D-07  0.00003  0.00001  0.00027  0.00090     66.5
         Total SCF energy =   -269.270170669611
@ Step       Energy      Delta E   Gmax     Grms     Xrms     Xmax   Walltime
@ ---- ---------------- -------- -------- -------- -------- -------- --------
@    0    -269.27017067  0.0D+00  0.00130  0.00017  0.00000  0.00000     70.9
         Total SCF energy =   -269.270167293320
@    1    -269.27016729  3.4D-06  0.00129  0.00017  0.00035  0.00080     73.3
         Total SCF energy =   -269.269976506981
@    2    -269.26997651  1.9D-04  0.00334  0.00045  0.00994  0.02924     76.4
         Total SCF energy =   -269.269430549795
@    3    -269.26943055  5.5D-04  0.01179  0.00157  0.01621  0.04140     79.4
         Total SCF energy =   -269.269815088044
@    4    -269.26981509 -3.8D-04  0.01021  0.00122  0.01756  0.03456     82.5
         Total SCF energy =   -269.269268670587
@    5    -269.26926867  5.5D-04  0.00849  0.00141  0.02343  0.04739     85.5
         Total SCF energy =   -269.269831688886
@    6    -269.26983169 -5.6D-04  0.00182  0.00049  0.02825  0.07170     88.6
         Total SCF energy =   -269.269654338271
@    7    -269.26965434  1.8D-04  0.00479  0.00081  0.03439  0.08424     91.6
         Total SCF energy =   -269.268911961154
@    8    -269.26891196  7.4D-04  0.00860  0.00164  0.02802  0.05890     94.7
         Total SCF energy =   -269.269864567219
@    9    -269.26986457 -9.5D-04  0.00336  0.00073  0.03316  0.06250     98.0
         Total SCF energy =   -269.269894415787
@   10    -269.26989442 -3.0D-05  0.00311  0.00060  0.02301  0.06423    101.1
         Total SCF energy =   -269.270098366055
@   11    -269.27009837 -2.0D-04  0.00259  0.00045  0.02096  0.06269    104.3
         Total SCF energy =   -269.270017382565
@   12    -269.27001738  8.1D-05  0.00078  0.00023  0.01736  0.05151    107.5
         Total SCF energy =   -269.270130432908
@   13    -269.27013043 -1.1D-04  0.00122  0.00019  0.01499  0.04449    110.6
         Total SCF energy =   -269.270049314329
@   14    -269.27004931  8.1D-05  0.00155  0.00032  0.01633  0.03776    113.7
         Total SCF energy =   -269.270125994185
@   15    -269.27012599 -7.7D-05  0.00083  0.00015  0.01368  0.04157    116.7
         Total SCF energy =   -269.270151121964
@   16    -269.27015112 -2.5D-05  0.00032  0.00007  0.01063  0.03246    119.8
         Total SCF energy =   -269.270158515818
@   17    -269.27015852 -7.4D-06  0.00013  0.00002  0.00394  0.01069    122.4
         Total SCF energy =   -269.270158697246
@   18    -269.27015870 -1.8D-07  0.00008  0.00002  0.00065  0.00214    125.1
         Total SCF energy =   -269.270158803674
@   19    -269.27015880 -1.1D-07  0.00001  0.00000  0.00027  0.00082    127.5
@   19    -269.27015880 -1.1D-07  0.00001  0.00000  0.00027  0.00082    127.5

 Output coordinates in angstroms (scale by  1.889725989 to convert to a.u.)

  No.       Tag          Charge          X              Y              Z
 ---- ---------------- ---------- -------------- -------------- --------------
    1 C                    6.0000    -0.75249845     1.15804869     0.70032510
    2 C                    6.0000    -0.75249845     1.15804869    -0.70032510
    3 C                    6.0000     0.34869240     0.45427057     1.15705810
    4 C                    6.0000     0.34869240     0.45427057    -1.15705810
    5 C                    6.0000     1.32924450     0.37641485     0.00000000
    6 C                    6.0000    -0.31565714    -1.59451881     0.68600953
    7 C                    6.0000    -0.31565714    -1.59451881    -0.68600953
    8 H                    1.0000     0.64689427     0.38240098    -2.18226844
    9 H                    1.0000     0.64689427     0.38240098     2.18226844
   10 H                    1.0000     1.99132166    -0.47257448     0.00000000
   11 H                    1.0000    -1.23604372    -1.53619244    -1.22976579
   12 H                    1.0000    -1.23604372    -1.53619244     1.22976579
   13 H                    1.0000    -1.54503362     1.52898854    -1.31538771
   14 H                    1.0000    -1.54503362     1.52898854     1.31538771
   15 H                    1.0000     1.91763595     1.29509677     0.00000000
   16 H                    1.0000     0.50665288    -2.02414075     1.22621961
   17 H                    1.0000     0.50665288    -2.02414075    -1.22621961

 Total times  cpu:      127.2s     wall:      127.5s
