============================== echo of input deck ==============================
echo
# calculation for methane dimer Grimme JCC 2004
# with BLYP/TZVP2P

title "ch4_2"

start ch4_2

geometry units angstroms noautoz
 C 0.00000000 0.00000000 1.78977169
 H 0.00000000 0.00000000 2.88489619
 H -0.72912121 0.72912121 1.42221856
 H -0.26687689 -0.99599810 1.42221856
 H 0.99599810 0.26687689 1.42221856
 C 0.00000000 0.00000000 -1.78977169
 H -0.99599810 -0.26687689 -1.42221856
 H 0.00000000 0.00000000 -2.88489619
 H 0.72912121 -0.72912121 -1.42221856
 H 0.26687689 0.99599810 -1.42221856
end

basis "ao basis" spherical noprint
# basis set TZVP2P(2d,2p), polarization from aug-cc-pvtz
  C    S
     13575.349682000      0.00022246
      2035.233368000      0.00172327
       463.225623590      0.00892557
       131.200195980      0.03572798
        42.853015891      0.11076260
        15.584185766      0.24295628
  C    S
         6.206713851      0.41440263
         2.576489653      0.23744969
  C    S
         0.576963394      1.00000000
  C    S
         0.229728314      1.00000000
  C    S
         0.095164440      1.00000000
  C    P
        34.697232244      0.00533337
         7.958262283      0.03586411
         2.378082688      0.14215873
         0.814332082      0.34270472
  C    P
         0.288875473      1.00000000
  C    P
         0.100568237      1.00000000
#aug-cc-pVTZ part for C
   C   D
   1.0970000000       1.0000000000
   C   D
  0.31800000000       1.0000000000

    H  S
    34.061341      .60251978E-02
    5.1235746      .45021094E-01
    1.1646626      .20189726
    H  S
    .32723041      1.0000000
    H  S
    .10307241      1.0000000
#aug-cc-pVTZ part for H
   H   P
   1.4070000000       1.0000000000
   H   P
  0.38800000000       1.0000000000

end

basis "cd basis"  spherical noprint
  *   library "Ahlrichs Coulomb Fitting"
end

dft
 xc  becke88 1. lyp 1.
 vectors output ch4_2.movecs
 direct
 disp vdw 1
end
task dft optimize

dft
 disp vdw 3
end
task dft energy
================================================================================

         Total DFT energy =      -81.003754874691
@ Step       Energy      Delta E   Gmax     Grms     Xrms     Xmax   Walltime
@ ---- ---------------- -------- -------- -------- -------- -------- --------
@    0     -81.00375487  0.0D+00  0.00023  0.00006  0.00000  0.00000      1.5
         Total DFT energy =      -81.003755066120
         Total DFT energy =    -81.003755066120
@    1     -81.00375507 -1.9D-07  0.00007  0.00004  0.00035  0.00108      2.3
@    1     -81.00375507 -1.9D-07  0.00007  0.00004  0.00035  0.00108      2.3

 Output coordinates in angstroms (scale by  1.889725989 to convert to a.u.)

  No.       Tag          Charge          X              Y              Z
 ---- ---------------- ---------- -------------- -------------- --------------
    1 C                    6.0000     0.00000000    -0.00000000     1.79034091
    2 H                    1.0000     0.00000000    -0.00000000     2.88525853
    3 H                    1.0000    -0.72903797     0.72903797     1.42229668
    4 H                    1.0000    -0.26684642    -0.99588438     1.42229668
    5 H                    1.0000     0.99588438     0.26684642     1.42229668
    6 C                    6.0000    -0.00000000     0.00000000    -1.79034091
    7 H                    1.0000    -0.99588438    -0.26684642    -1.42229668
    8 H                    1.0000    -0.00000000     0.00000000    -2.88525853
    9 H                    1.0000     0.72903797    -0.72903797    -1.42229668
   10 H                    1.0000     0.26684642     0.99588438    -1.42229668

         Total DFT energy =      -81.003919539094

                       DFT Final Molecular Orbital Analysis
                       ------------------------------------

 Vector    1  Occ=2.000000D+00  E=-9.887178D+00  Symmetry=a1g

 Vector   41  Occ=0.000000D+00  E= 8.381721D-01  Symmetry=a1u

 Vector   42  Occ=0.000000D+00  E= 8.463230D-01  Symmetry=eg

 Vector   43  Occ=0.000000D+00  E= 8.463230D-01  Symmetry=eg

 Vector   44  Occ=0.000000D+00  E= 8.531123D-01  Symmetry=a2g

 Vector   45  Occ=0.000000D+00  E= 8.618491D-01  Symmetry=a2u

 Vector   46  Occ=0.000000D+00  E= 9.157721D-01  Symmetry=eu

 Vector   47  Occ=0.000000D+00  E= 9.157721D-01  Symmetry=eu

 Vector   48  Occ=0.000000D+00  E= 9.298407D-01  Symmetry=eg

 Vector   49  Occ=0.000000D+00  E= 9.298407D-01  Symmetry=eg

 Vector   50  Occ=0.000000D+00  E= 9.624200D-01  Symmetry=a1g

 Vector   51  Occ=0.000000D+00  E= 1.068461D+00  Symmetry=eg

 Vector   52  Occ=0.000000D+00  E= 1.068461D+00  Symmetry=eg

 Vector   53  Occ=0.000000D+00  E= 1.075733D+00  Symmetry=eu

 Vector   54  Occ=0.000000D+00  E= 1.075733D+00  Symmetry=eu

 Vector   55  Occ=0.000000D+00  E= 1.130579D+00  Symmetry=a1g

 Vector   56  Occ=0.000000D+00  E= 1.213274D+00  Symmetry=a2u

 Vector   57  Occ=0.000000D+00  E= 1.359574D+00  Symmetry=eu

 Vector   58  Occ=0.000000D+00  E= 1.359574D+00  Symmetry=eu

 Vector   59  Occ=0.000000D+00  E= 1.363032D+00  Symmetry=eg

 Vector   60  Occ=0.000000D+00  E= 1.363032D+00  Symmetry=eg

 Vector   61  Occ=0.000000D+00  E= 1.381456D+00  Symmetry=a2u

 Vector   62  Occ=0.000000D+00  E= 1.392379D+00  Symmetry=a1g

 Vector   63  Occ=0.000000D+00  E= 1.396802D+00  Symmetry=a2u

 Vector   64  Occ=0.000000D+00  E= 1.406313D+00  Symmetry=eg

 Vector   65  Occ=0.000000D+00  E= 1.406313D+00  Symmetry=eg

 Vector   66  Occ=0.000000D+00  E= 1.421241D+00  Symmetry=eu

 Vector   67  Occ=0.000000D+00  E= 1.421241D+00  Symmetry=eu

 Vector   68  Occ=0.000000D+00  E= 1.444075D+00  Symmetry=a1g

 Vector   69  Occ=0.000000D+00  E= 1.509344D+00  Symmetry=a2u

 Vector   70  Occ=0.000000D+00  E= 1.555696D+00  Symmetry=a1g

 Vector   71  Occ=0.000000D+00  E= 1.882271D+00  Symmetry=eu

 Vector   72  Occ=0.000000D+00  E= 1.882271D+00  Symmetry=eu

 Vector   73  Occ=0.000000D+00  E= 1.891885D+00  Symmetry=a1g

 Vector   74  Occ=0.000000D+00  E= 1.893212D+00  Symmetry=eg

 Vector   75  Occ=0.000000D+00  E= 1.893212D+00  Symmetry=eg

 Vector   76  Occ=0.000000D+00  E= 2.013984D+00  Symmetry=a2u

 Vector   77  Occ=0.000000D+00  E= 2.587172D+00  Symmetry=eg

 Vector   78  Occ=0.000000D+00  E= 2.587172D+00  Symmetry=eg

 Vector   79  Occ=0.000000D+00  E= 2.606923D+00  Symmetry=eu

 Vector   80  Occ=0.000000D+00  E= 2.606923D+00  Symmetry=eu

 Vector   81  Occ=0.000000D+00  E= 2.626404D+00  Symmetry=a1g

 Vector   82  Occ=0.000000D+00  E= 2.654138D+00  Symmetry=a2u

 Vector   83  Occ=0.000000D+00  E= 2.826619D+00  Symmetry=a1g

 Vector   84  Occ=0.000000D+00  E= 2.891016D+00  Symmetry=a2u

 Vector   85  Occ=0.000000D+00  E= 2.898860D+00  Symmetry=eu

 Vector   86  Occ=0.000000D+00  E= 2.898860D+00  Symmetry=eu

 Vector   87  Occ=0.000000D+00  E= 2.899912D+00  Symmetry=eg

 Vector   88  Occ=0.000000D+00  E= 2.899912D+00  Symmetry=eg

 Vector   89  Occ=0.000000D+00  E= 2.925673D+00  Symmetry=eu

 Vector   90  Occ=0.000000D+00  E= 2.925673D+00  Symmetry=eu

 Vector   91  Occ=0.000000D+00  E= 2.943514D+00  Symmetry=eg

 Vector   92  Occ=0.000000D+00  E= 2.943514D+00  Symmetry=eg

 Vector   93  Occ=0.000000D+00  E= 2.981800D+00  Symmetry=a1g

 Vector   94  Occ=0.000000D+00  E= 3.076779D+00  Symmetry=a2u

 Vector   95  Occ=0.000000D+00  E= 3.590578D+00  Symmetry=eu

 Vector   96  Occ=0.000000D+00  E= 3.590578D+00  Symmetry=eu

 Vector   97  Occ=0.000000D+00  E= 3.595371D+00  Symmetry=a1u

 Vector   98  Occ=0.000000D+00  E= 3.614638D+00  Symmetry=a2g

 Vector   99  Occ=0.000000D+00  E= 3.634501D+00  Symmetry=eg

 Vector  100  Occ=0.000000D+00  E= 3.634501D+00  Symmetry=eg

 Vector  101  Occ=0.000000D+00  E= 3.786327D+00  Symmetry=eu

 Vector  102  Occ=0.000000D+00  E= 3.786327D+00  Symmetry=eu

 Vector  103  Occ=0.000000D+00  E= 3.792999D+00  Symmetry=eg

 Vector  104  Occ=0.000000D+00  E= 3.792999D+00  Symmetry=eg

 Vector  105  Occ=0.000000D+00  E= 3.802393D+00  Symmetry=a2u

 Vector  106  Occ=0.000000D+00  E= 3.856982D+00  Symmetry=eu

 Vector  107  Occ=0.000000D+00  E= 3.856982D+00  Symmetry=eu

 Vector  108  Occ=0.000000D+00  E= 3.894470D+00  Symmetry=eg

 Vector  109  Occ=0.000000D+00  E= 3.894470D+00  Symmetry=eg

 Vector  110  Occ=0.000000D+00  E= 3.913783D+00  Symmetry=a1g

 Vector  111  Occ=0.000000D+00  E= 3.960300D+00  Symmetry=a2u

 Vector  112  Occ=0.000000D+00  E= 4.031289D+00  Symmetry=a1g

 Vector  113  Occ=0.000000D+00  E= 4.582121D+00  Symmetry=a1g

 Vector  114  Occ=0.000000D+00  E= 4.583003D+00  Symmetry=eg

 Vector  115  Occ=0.000000D+00  E= 4.583003D+00  Symmetry=eg

 Vector  116  Occ=0.000000D+00  E= 4.596156D+00  Symmetry=a2u

 Vector  117  Occ=0.000000D+00  E= 4.605031D+00  Symmetry=eu

 Vector  118  Occ=0.000000D+00  E= 4.605031D+00  Symmetry=eu

 Vector  119  Occ=0.000000D+00  E= 2.168956D+01  Symmetry=a2u

 Vector  120  Occ=0.000000D+00  E= 2.173559D+01  Symmetry=a1g

     Multipole analysis of the density
     ---------------------------------

     L   x y z        total         alpha         beta         nuclear
     -   - - -        -----         -----         ----         -------
     0   0 0 0     -0.000000    -10.000000    -10.000000     20.000000

     1   1 0 0     -0.000000     -0.000000     -0.000000      0.000000
     1   0 1 0     -0.000000     -0.000000     -0.000000      0.000000
     1   0 0 1     -0.000000     -0.000000     -0.000000      0.000000

     2   2 0 0    -12.782554    -12.085300    -12.085300     11.388046
     2   1 1 0     -0.000000     -0.000000     -0.000000     -0.000000
     2   1 0 1     -0.000000     -0.000000     -0.000000     -0.000000
     2   0 2 0    -12.782554    -12.085300    -12.085300     11.388046
     2   0 1 1      0.000000      0.000000      0.000000      0.000000

 Total times  cpu:        2.8s     wall:        2.8s
