============================== echo of input deck ==============================
title "dplot testing"
echo
start dplot

memory 90 mb

geometry units au
 Be 0       0        0
end

basis
  Be library 6-31g*
end
scf
   vectors output ttt.movecs
end

task scf energy

dplot
   vectors  ttt.movecs
   title HOMO
   limitXYZ
   -3.0 3.0 10
   -3.0 3.0 10
   -3.0 3.0 10
   spin total
   gaussian
   output lumo.cube
end
task dplot

pspw
   simulation_cell
      ngrid 16 16 16
      boundary_conditions aperiodic
      SC 20.0
   end
end
set nwpw:minimizer 2
task pspw energy

pspw
   dplot
     density total total.cube
     orbital 1      orb1.cube
   end
end
task pspw pspw_dplot
================================================================================

 Output coordinates in a.u. (scale by  1.000000000 to convert to a.u.)

  No.       Tag          Charge          X              Y              Z
 ---- ---------------- ---------- -------------- -------------- --------------
    1 Be                   4.0000     0.00000000     0.00000000     0.00000000

         Total SCF energy =    -14.566944361417

 Vector    2  Occ=2.000000D+00  E=-3.015381D-01

 Vector    3  Occ=0.000000D+00  E= 8.224090D-02

 Vector    4  Occ=0.000000D+00  E= 8.224090D-02

 Vector    5  Occ=0.000000D+00  E= 8.224090D-02

 Vector    6  Occ=0.000000D+00  E= 4.389411D-01

 Vector    7  Occ=0.000000D+00  E= 4.643612D-01

 Vector    8  Occ=0.000000D+00  E= 4.643612D-01

 Vector    9  Occ=0.000000D+00  E= 4.643612D-01

 Vector   10  Occ=0.000000D+00  E= 1.068860D+00

 Vector   11  Occ=0.000000D+00  E= 1.068860D+00

 Vector   12  Occ=0.000000D+00  E= 1.068860D+00

       Multipole analysis of the density wrt the origin
       ------------------------------------------------

     L   x y z        total         open         nuclear
     -   - - -        -----         ----         -------
     0   0 0 0      0.000000      0.000000      4.000000

     1   1 0 0     -0.000000      0.000000      0.000000
     1   0 1 0      0.000000      0.000000      0.000000
     1   0 0 1      0.000000      0.000000      0.000000

     2   2 0 0     -5.254088      0.000000      0.000000
     2   1 1 0      0.000000      0.000000      0.000000
     2   1 0 1     -0.000000      0.000000      0.000000
     2   0 2 0     -5.254088      0.000000      0.000000
     2   0 1 1      0.000000      0.000000      0.000000

 Total times  cpu:        0.3s     wall:        0.3s
