============================== echo of input deck ==============================
echo
title "M06/6-31+G* HF optimization "

start fh

geometry
F        0.000000    0.000000    0.108786
H        0.000000    0.000000   -0.870284
end

basis
* library 6-31+G*
end

dft
xc  m06
mult 1
grid fine
end

task dft  optimize
================================================================================

         Total DFT energy =     -100.410910033253
@ Step       Energy      Delta E   Gmax     Grms     Xrms     Xmax   Walltime
@ ---- ---------------- -------- -------- -------- -------- -------- --------
@    0    -100.41091003  0.0D+00  0.04747  0.04747  0.00000  0.00000      0.2
         Total DFT energy =     -100.411832801327

 Vector    5  Occ=2.000000D+00  E=-4.421559D-01  Symmetry=e

 Vector    6  Occ=0.000000D+00  E= 6.163270D-02  Symmetry=a1

 Vector    7  Occ=0.000000D+00  E= 1.782980D-01  Symmetry=a1

 Vector    8  Occ=0.000000D+00  E= 1.908758D-01  Symmetry=e

 Vector    9  Occ=0.000000D+00  E= 1.908758D-01  Symmetry=e

 Vector   10  Occ=0.000000D+00  E= 2.337843D-01  Symmetry=a1

 Vector   11  Occ=0.000000D+00  E= 1.006258D+00  Symmetry=a1

 Vector   12  Occ=0.000000D+00  E= 1.456592D+00  Symmetry=e

 Vector   13  Occ=0.000000D+00  E= 1.456592D+00  Symmetry=e

 Vector   14  Occ=0.000000D+00  E= 1.486713D+00  Symmetry=a1

 Vector   15  Occ=0.000000D+00  E= 1.583729D+00  Symmetry=a1

 Vector   16  Occ=0.000000D+00  E= 1.791917D+00  Symmetry=e

 Vector   17  Occ=0.000000D+00  E= 1.791917D+00  Symmetry=e

 Vector   18  Occ=0.000000D+00  E= 1.867218D+00  Symmetry=b1

 Vector   19  Occ=0.000000D+00  E= 1.867219D+00  Symmetry=b2

 Vector   20  Occ=0.000000D+00  E= 2.726953D+00  Symmetry=a1

 Vector   21  Occ=0.000000D+00  E= 4.229679D+00  Symmetry=a1

         Total DFT energy =     -100.413262074385

 Vector    1  Occ=2.000000D+00  E=-2.480701D+01  Symmetry=a1

 Vector    2  Occ=2.000000D+00  E=-1.246613D+00  Symmetry=a1

 Vector    3  Occ=2.000000D+00  E=-5.772726D-01  Symmetry=a1

 Vector    4  Occ=2.000000D+00  E=-4.381486D-01  Symmetry=e

 Vector    5  Occ=2.000000D+00  E=-4.381486D-01  Symmetry=e

 Vector    6  Occ=0.000000D+00  E= 5.327924D-02  Symmetry=a1

 Vector    7  Occ=0.000000D+00  E= 1.795639D-01  Symmetry=a1

 Vector    8  Occ=0.000000D+00  E= 1.924747D-01  Symmetry=e

 Vector    9  Occ=0.000000D+00  E= 1.924747D-01  Symmetry=e

 Vector   10  Occ=0.000000D+00  E= 2.283601D-01  Symmetry=a1

 Vector   11  Occ=0.000000D+00  E= 9.569607D-01  Symmetry=a1

 Vector   12  Occ=0.000000D+00  E= 1.459386D+00  Symmetry=e

 Vector   13  Occ=0.000000D+00  E= 1.459386D+00  Symmetry=e

 Vector   14  Occ=0.000000D+00  E= 1.500502D+00  Symmetry=a1

 Vector   15  Occ=0.000000D+00  E= 1.594473D+00  Symmetry=a1

 Vector   16  Occ=0.000000D+00  E= 1.799696D+00  Symmetry=e

 Vector   17  Occ=0.000000D+00  E= 1.799696D+00  Symmetry=e

 Vector   18  Occ=0.000000D+00  E= 1.870991D+00  Symmetry=b1

 Vector   19  Occ=0.000000D+00  E= 1.870992D+00  Symmetry=b2

 Vector   20  Occ=0.000000D+00  E= 2.653951D+00  Symmetry=a1

 Vector   21  Occ=0.000000D+00  E= 4.229711D+00  Symmetry=a1

@    1    -100.41326207 -2.4D-03  0.00161  0.00161  0.02626  0.04549      0.5
         Total DFT energy =     -100.413264182134

 Vector    1  Occ=2.000000D+00  E=-2.480697D+01  Symmetry=a1

 Vector    2  Occ=2.000000D+00  E=-1.247168D+00  Symmetry=a1

 Vector    3  Occ=2.000000D+00  E=-5.776787D-01  Symmetry=a1

 Vector    4  Occ=2.000000D+00  E=-4.383320D-01  Symmetry=e

 Vector    5  Occ=2.000000D+00  E=-4.383320D-01  Symmetry=e

 Vector    6  Occ=0.000000D+00  E= 5.371155D-02  Symmetry=a1

 Vector    7  Occ=0.000000D+00  E= 1.795082D-01  Symmetry=a1

 Vector    8  Occ=0.000000D+00  E= 1.924007D-01  Symmetry=e

 Vector    9  Occ=0.000000D+00  E= 1.924007D-01  Symmetry=e

 Vector   10  Occ=0.000000D+00  E= 2.285578D-01  Symmetry=a1

 Vector   11  Occ=0.000000D+00  E= 9.591175D-01  Symmetry=a1

 Vector   12  Occ=0.000000D+00  E= 1.459254D+00  Symmetry=e

 Vector   13  Occ=0.000000D+00  E= 1.459254D+00  Symmetry=e

 Vector   14  Occ=0.000000D+00  E= 1.499933D+00  Symmetry=a1

 Vector   15  Occ=0.000000D+00  E= 1.593918D+00  Symmetry=a1

 Vector   16  Occ=0.000000D+00  E= 1.799333D+00  Symmetry=e

 Vector   17  Occ=0.000000D+00  E= 1.799333D+00  Symmetry=e

 Vector   18  Occ=0.000000D+00  E= 1.870817D+00  Symmetry=b1

 Vector   19  Occ=0.000000D+00  E= 1.870818D+00  Symmetry=b2

 Vector   20  Occ=0.000000D+00  E= 2.657280D+00  Symmetry=a1

 Vector   21  Occ=0.000000D+00  E= 4.229619D+00  Symmetry=a1

         Total DFT energy =   -100.413264182134
@    2    -100.41326418 -2.1D-06  0.00030  0.00030  0.00092  0.00160      0.6
         Total DFT energy =     -100.413264252346

                       DFT Final Molecular Orbital Analysis
                       ------------------------------------

 Vector    1  Occ=2.000000D+00  E=-2.480703D+01  Symmetry=a1

 Vector    2  Occ=2.000000D+00  E=-1.247097D+00  Symmetry=a1

 Vector    3  Occ=2.000000D+00  E=-5.776313D-01  Symmetry=a1

 Vector    4  Occ=2.000000D+00  E=-4.383225D-01  Symmetry=e

 Vector    5  Occ=2.000000D+00  E=-4.383225D-01  Symmetry=e

 Vector    6  Occ=0.000000D+00  E= 5.363870D-02  Symmetry=a1

 Vector    7  Occ=0.000000D+00  E= 1.795170D-01  Symmetry=a1

 Vector    8  Occ=0.000000D+00  E= 1.924121D-01  Symmetry=e

 Vector    9  Occ=0.000000D+00  E= 1.924121D-01  Symmetry=e

 Vector   10  Occ=0.000000D+00  E= 2.285260D-01  Symmetry=a1

 Vector   11  Occ=0.000000D+00  E= 9.587661D-01  Symmetry=a1

 Vector   12  Occ=0.000000D+00  E= 1.459262D+00  Symmetry=e

 Vector   13  Occ=0.000000D+00  E= 1.459262D+00  Symmetry=e

 Vector   14  Occ=0.000000D+00  E= 1.500012D+00  Symmetry=a1

 Vector   15  Occ=0.000000D+00  E= 1.594000D+00  Symmetry=a1

 Vector   16  Occ=0.000000D+00  E= 1.799381D+00  Symmetry=e

 Vector   17  Occ=0.000000D+00  E= 1.799381D+00  Symmetry=e

 Vector   18  Occ=0.000000D+00  E= 1.870833D+00  Symmetry=b1

 Vector   19  Occ=0.000000D+00  E= 1.870834D+00  Symmetry=b2

 Vector   20  Occ=0.000000D+00  E= 2.656741D+00  Symmetry=a1

 Vector   21  Occ=0.000000D+00  E= 4.229616D+00  Symmetry=a1

     Multipole analysis of the density
     ---------------------------------

     L   x y z        total         alpha         beta         nuclear
     -   - - -        -----         -----         ----         -------
     0   0 0 0     -0.000000     -5.000000     -5.000000     10.000000

     1   1 0 0      0.000000      0.000000      0.000000      0.000000
     1   0 1 0      0.000000      0.000000      0.000000      0.000000
     1   0 0 1     -0.815565     -0.220455     -0.220455     -0.374656

     2   2 0 0     -4.368430     -2.184215     -2.184215      0.000000
     2   1 1 0      0.000000      0.000000      0.000000      0.000000
     2   1 0 1      0.000000      0.000000      0.000000      0.000000
     2   0 2 0     -4.368430     -2.184215     -2.184215      0.000000
     2   0 1 1      0.000000      0.000000      0.000000      0.000000

         Total DFT energy =   -100.413264252346
@    3    -100.41326425 -7.0D-08  0.00001  0.00001  0.00015  0.00025      0.7
@    3    -100.41326425 -7.0D-08  0.00001  0.00001  0.00015  0.00025      0.7

 Output coordinates in angstroms (scale by  1.889725989 to convert to a.u.)

  No.       Tag          Charge          X              Y              Z
 ---- ---------------- ---------- -------------- -------------- --------------
    1 F                    9.0000     0.00000000     0.00000000     0.07312460
    2 H                    1.0000     0.00000000     0.00000000    -0.85638060

 Total times  cpu:        0.7s     wall:        0.7s
