============================== echo of input deck ==============================
echo
start h2o

basis
  * library 6-31g*
end
#First test load entire system from xyz file
geometry noautosym noautoz nocenter
 load geom_load_xyz.xyz
end

dft
vectors input atomic
end
task dft gradient

#The same system but now specified explicitly
geometry noautosym noautoz nocenter
O    -3.307   3.534   6.622
H    -3.197   4.424   6.180
H    -3.992   2.998   6.128
end

dft
vectors input atomic
end
task dft gradient

#The same system but now specified via mixed input
#using id selection
geometry noautosym noautoz nocenter
load geom_load_xyz.xyz select id 1
H    -3.197   4.424   6.180
H    -3.992   2.998   6.128
end

dft
vectors input atomic
end
task dft gradient

#The same system but now specified via mixed input
#using id selection
geometry noautosym noautoz nocenter
load geom_load_xyz.xyz select id 1
H    -3.197   4.424   6.180
load geom_load_xyz.xyz select id 3
end

dft
vectors input atomic
end
task dft gradient

#The same system but now specified via mixed input
#using id RANGE selection
geometry noautosym noautoz nocenter
load geom_load_xyz.xyz select id 1:2
H    -3.992   2.998   6.128
end

dft
vectors input atomic
end
task dft gradient

#The same system but now specified via mixed input
#using id RANGE selection
geometry noautosym noautoz nocenter
O    -3.307   3.534   6.622
load geom_load_xyz.xyz select name H
end

dft
vectors input atomic
end
task dft gradient

#load frame 3 from multi-structure xyz file
geometry noautosym noautoz nocenter
 load frame 3 geom_load_xyz.xyz
end

dft
vectors input atomic
end
task dft gradient

#load frame 3 from multi-structure xyz file
#using selection within the frame
geometry noautosym noautoz nocenter
 load frame 3 select name O geom_load_xyz.xyz
 load frame 3 select id 2:3 geom_load_xyz.xyz
end

dft
vectors input atomic
end
task dft gradient

================================================================================

         Total DFT energy =      -75.842927164709
         Total DFT energy =      -75.842927164767
         Total DFT energy =      -75.842927164708
         Total DFT energy =      -75.842927164708

 Vector   16  Occ=0.000000D+00  E= 1.724225D+00

 Vector   17  Occ=0.000000D+00  E= 2.180857D+00

 Vector   18  Occ=0.000000D+00  E= 2.450896D+00

 Vector   19  Occ=0.000000D+00  E= 3.464663D+00

         Total DFT energy =      -75.842927164709

 Vector    1  Occ=2.000000D+00  E=-1.860269D+01

 Vector    2  Occ=2.000000D+00  E=-8.816179D-01

 Vector    3  Occ=2.000000D+00  E=-4.609120D-01

 Vector    4  Occ=2.000000D+00  E=-2.988041D-01

 Vector    5  Occ=2.000000D+00  E=-2.257207D-01

 Vector    6  Occ=0.000000D+00  E= 2.964554D-02

 Vector    7  Occ=0.000000D+00  E= 1.116007D-01

 Vector    8  Occ=0.000000D+00  E= 7.450569D-01

 Vector    9  Occ=0.000000D+00  E= 7.661777D-01

 Vector   10  Occ=0.000000D+00  E= 8.303469D-01

 Vector   11  Occ=0.000000D+00  E= 8.396156D-01

 Vector   12  Occ=0.000000D+00  E= 9.962659D-01

 Vector   13  Occ=0.000000D+00  E= 1.110906D+00

 Vector   14  Occ=0.000000D+00  E= 1.679738D+00

 Vector   15  Occ=0.000000D+00  E= 1.683721D+00

 Vector   16  Occ=0.000000D+00  E= 1.724225D+00

 Vector   17  Occ=0.000000D+00  E= 2.180857D+00

 Vector   18  Occ=0.000000D+00  E= 2.450896D+00

 Vector   19  Occ=0.000000D+00  E= 3.464663D+00

         Total DFT energy =      -75.842927164768

 Vector    1  Occ=2.000000D+00  E=-1.860269D+01

 Vector    2  Occ=2.000000D+00  E=-8.816179D-01

 Vector    3  Occ=2.000000D+00  E=-4.609120D-01

 Vector    4  Occ=2.000000D+00  E=-2.988041D-01

 Vector    5  Occ=2.000000D+00  E=-2.257207D-01

 Vector    6  Occ=0.000000D+00  E= 2.964554D-02

 Vector    7  Occ=0.000000D+00  E= 1.116007D-01

 Vector    8  Occ=0.000000D+00  E= 7.450569D-01

 Vector    9  Occ=0.000000D+00  E= 7.661777D-01

 Vector   10  Occ=0.000000D+00  E= 8.303469D-01

 Vector   11  Occ=0.000000D+00  E= 8.396156D-01

 Vector   12  Occ=0.000000D+00  E= 9.962659D-01

 Vector   13  Occ=0.000000D+00  E= 1.110906D+00

 Vector   14  Occ=0.000000D+00  E= 1.679738D+00

 Vector   15  Occ=0.000000D+00  E= 1.683721D+00

 Vector   16  Occ=0.000000D+00  E= 1.724225D+00

 Vector   17  Occ=0.000000D+00  E= 2.180857D+00

 Vector   18  Occ=0.000000D+00  E= 2.450896D+00

 Vector   19  Occ=0.000000D+00  E= 3.464663D+00

         Total DFT energy =      -75.842911617635

 Vector    1  Occ=2.000000D+00  E=-1.860274D+01

 Vector    2  Occ=2.000000D+00  E=-8.815388D-01

 Vector    3  Occ=2.000000D+00  E=-4.607897D-01

 Vector    4  Occ=2.000000D+00  E=-2.988435D-01

 Vector    5  Occ=2.000000D+00  E=-2.257080D-01

 Vector    6  Occ=0.000000D+00  E= 2.955616D-02

 Vector    7  Occ=0.000000D+00  E= 1.114842D-01

 Vector    8  Occ=0.000000D+00  E= 7.448532D-01

 Vector    9  Occ=0.000000D+00  E= 7.660376D-01

 Vector   10  Occ=0.000000D+00  E= 8.303446D-01

 Vector   11  Occ=0.000000D+00  E= 8.396320D-01

 Vector   12  Occ=0.000000D+00  E= 9.961953D-01

 Vector   13  Occ=0.000000D+00  E= 1.110916D+00

 Vector   14  Occ=0.000000D+00  E= 1.679816D+00

 Vector   15  Occ=0.000000D+00  E= 1.683697D+00

 Vector   16  Occ=0.000000D+00  E= 1.724235D+00

 Vector   17  Occ=0.000000D+00  E= 2.180500D+00

 Vector   18  Occ=0.000000D+00  E= 2.450474D+00

 Vector   19  Occ=0.000000D+00  E= 3.464493D+00

 Output coordinates in angstroms (scale by  1.889725989 to convert to a.u.)

  No.       Tag          Charge          X              Y              Z
 ---- ---------------- ---------- -------------- -------------- --------------
    1 O                    8.0000     0.65400000    -6.58700000    10.06600000
    2 H                    1.0000     0.20800000    -7.34300000     9.58700000
    3 H                    1.0000     0.38500000    -5.72000000     9.64500000

         Total DFT energy =      -75.842911617635

                       DFT Final Molecular Orbital Analysis
                       ------------------------------------

 Vector    1  Occ=2.000000D+00  E=-1.860274D+01

 Vector    2  Occ=2.000000D+00  E=-8.815388D-01

 Vector    3  Occ=2.000000D+00  E=-4.607897D-01

 Vector    4  Occ=2.000000D+00  E=-2.988435D-01

 Vector    5  Occ=2.000000D+00  E=-2.257080D-01

 Vector    6  Occ=0.000000D+00  E= 2.955616D-02

 Vector    7  Occ=0.000000D+00  E= 1.114842D-01

 Vector    8  Occ=0.000000D+00  E= 7.448532D-01

 Vector    9  Occ=0.000000D+00  E= 7.660376D-01

 Vector   10  Occ=0.000000D+00  E= 8.303446D-01

 Vector   11  Occ=0.000000D+00  E= 8.396320D-01

 Vector   12  Occ=0.000000D+00  E= 9.961953D-01

 Vector   13  Occ=0.000000D+00  E= 1.110916D+00

 Vector   14  Occ=0.000000D+00  E= 1.679816D+00

 Vector   15  Occ=0.000000D+00  E= 1.683697D+00

 Vector   16  Occ=0.000000D+00  E= 1.724235D+00

 Vector   17  Occ=0.000000D+00  E= 2.180500D+00

 Vector   18  Occ=0.000000D+00  E= 2.450474D+00

 Vector   19  Occ=0.000000D+00  E= 3.464493D+00

     Multipole analysis of the density
     ---------------------------------

     L   x y z        total         alpha         beta         nuclear
     -   - - -        -----         -----         ----         -------
     0   0 0 0     -0.000000     -5.000000     -5.000000     10.000000

     1   1 0 0     -0.501519     -5.754586     -5.754586     11.007654
     1   0 1 0      0.077611     62.172051     62.172051   -124.266491
     1   0 0 1     -0.631258    -94.575161    -94.575161    188.519065

     2   2 0 0     -6.198707     -9.550869     -9.550869     12.903030
     2   1 1 0      6.536173     71.462431     71.462431   -136.388688
     2   1 0 1     -9.733331   -109.093057   -109.093057    208.452784
     2   0 2 0     -4.906407   -776.921707   -776.921707   1548.937007
     2   0 1 1      9.332672   1175.983781   1175.983781  -2342.634890

 Total times  cpu:        1.4s     wall:        1.4s
