============================== echo of input deck ==============================
title "h2o ssb-d-dft"

echo
start h2o-ssb-d-opt

geometry units au
 O 0       0        0
 H 0       1.430   -1.107
 H 0      -1.430   -1.107
end

basis
  O library 6-31g*
  H library 6-31g*
end

dft
  iterations 99
  CONVERGENCE density 1.0e-6
  CONVERGENCE gradient 1.0e-6
  convergence damp 90 nolevelshifting
  convergence diison 0.01
  TOLERANCES tight
  grid fine
  xc ssb-d
end

task dft optimize
================================================================================

         Total DFT energy =      -76.939210036627

 Vector    1  Occ=2.000000D+00  E=-1.893083D+01  Symmetry=a1

 Vector    2  Occ=2.000000D+00  E=-9.407672D-01  Symmetry=a1

 Vector    3  Occ=2.000000D+00  E=-4.791437D-01  Symmetry=b1

 Vector    4  Occ=2.000000D+00  E=-3.255334D-01  Symmetry=a1

 Vector    5  Occ=2.000000D+00  E=-2.378343D-01  Symmetry=b2

 Vector    6  Occ=0.000000D+00  E= 4.032729D-02  Symmetry=a1

 Vector    7  Occ=0.000000D+00  E= 1.255456D-01  Symmetry=b1

 Vector    8  Occ=0.000000D+00  E= 7.199651D-01  Symmetry=b1

 Vector    9  Occ=0.000000D+00  E= 8.056339D-01  Symmetry=a1

 Vector   10  Occ=0.000000D+00  E= 8.486538D-01  Symmetry=a1

 Vector   11  Occ=0.000000D+00  E= 8.562040D-01  Symmetry=b2

 Vector   12  Occ=0.000000D+00  E= 1.030858D+00  Symmetry=b1

 Vector   13  Occ=0.000000D+00  E= 1.150345D+00  Symmetry=a1

 Vector   14  Occ=0.000000D+00  E= 1.637742D+00  Symmetry=a1

 Vector   15  Occ=0.000000D+00  E= 1.653054D+00  Symmetry=a2

 Vector   16  Occ=0.000000D+00  E= 1.690376D+00  Symmetry=b2

 Vector   17  Occ=0.000000D+00  E= 2.201156D+00  Symmetry=a1

 Vector   18  Occ=0.000000D+00  E= 2.496859D+00  Symmetry=b1

 Vector   19  Occ=0.000000D+00  E= 3.468845D+00  Symmetry=a1

@ Step       Energy      Delta E   Gmax     Grms     Xrms     Xmax   Walltime
@ ---- ---------------- -------- -------- -------- -------- -------- --------
@    0     -76.93921004  0.0D+00  0.00526  0.00478  0.00000  0.00000      0.2
         Total DFT energy =      -76.939420566796

 Vector    1  Occ=2.000000D+00  E=-1.893336D+01  Symmetry=a1

 Vector    2  Occ=2.000000D+00  E=-9.393959D-01  Symmetry=a1

 Vector    3  Occ=2.000000D+00  E=-4.724839D-01  Symmetry=b1

 Vector    4  Occ=2.000000D+00  E=-3.300464D-01  Symmetry=a1

 Vector    5  Occ=2.000000D+00  E=-2.378981D-01  Symmetry=b2

 Vector    6  Occ=0.000000D+00  E= 3.778795D-02  Symmetry=a1

 Vector    7  Occ=0.000000D+00  E= 1.218420D-01  Symmetry=b1

 Vector    8  Occ=0.000000D+00  E= 7.086831D-01  Symmetry=b1

 Vector    9  Occ=0.000000D+00  E= 8.053756D-01  Symmetry=a1

 Vector   10  Occ=0.000000D+00  E= 8.488734D-01  Symmetry=a1

 Vector   11  Occ=0.000000D+00  E= 8.557577D-01  Symmetry=b2

 Vector   12  Occ=0.000000D+00  E= 1.026846D+00  Symmetry=b1

 Vector   13  Occ=0.000000D+00  E= 1.157148D+00  Symmetry=a1

 Vector   14  Occ=0.000000D+00  E= 1.632457D+00  Symmetry=a1

 Vector   15  Occ=0.000000D+00  E= 1.656741D+00  Symmetry=a2

 Vector   16  Occ=0.000000D+00  E= 1.688770D+00  Symmetry=b2

 Vector   17  Occ=0.000000D+00  E= 2.192214D+00  Symmetry=a1

 Vector   18  Occ=0.000000D+00  E= 2.479573D+00  Symmetry=b1

 Vector   19  Occ=0.000000D+00  E= 3.460904D+00  Symmetry=a1

         Total DFT energy =    -76.939420566796
@    1     -76.93942057 -2.1D-04  0.00115  0.00097  0.01144  0.02478      0.4
         Total DFT energy =      -76.939423510043

 Vector    1  Occ=2.000000D+00  E=-1.893323D+01  Symmetry=a1

 Vector    2  Occ=2.000000D+00  E=-9.402851D-01  Symmetry=a1

 Vector    3  Occ=2.000000D+00  E=-4.724664D-01  Symmetry=b1

 Vector    4  Occ=2.000000D+00  E=-3.307416D-01  Symmetry=a1

 Vector    5  Occ=2.000000D+00  E=-2.381063D-01  Symmetry=b2

 Vector    6  Occ=0.000000D+00  E= 3.819138D-02  Symmetry=a1

 Vector    7  Occ=0.000000D+00  E= 1.223481D-01  Symmetry=b1

 Vector    8  Occ=0.000000D+00  E= 7.083006D-01  Symmetry=b1

 Vector    9  Occ=0.000000D+00  E= 8.078964D-01  Symmetry=a1

 Vector   10  Occ=0.000000D+00  E= 8.489699D-01  Symmetry=a1

 Vector   11  Occ=0.000000D+00  E= 8.556788D-01  Symmetry=b2

 Vector   12  Occ=0.000000D+00  E= 1.026916D+00  Symmetry=b1

 Vector   13  Occ=0.000000D+00  E= 1.158460D+00  Symmetry=a1

 Vector   14  Occ=0.000000D+00  E= 1.631218D+00  Symmetry=a1

 Vector   15  Occ=0.000000D+00  E= 1.656669D+00  Symmetry=a2

 Vector   16  Occ=0.000000D+00  E= 1.688171D+00  Symmetry=b2

 Vector   17  Occ=0.000000D+00  E= 2.194185D+00  Symmetry=a1

 Vector   18  Occ=0.000000D+00  E= 2.481452D+00  Symmetry=b1

 Vector   19  Occ=0.000000D+00  E= 3.461106D+00  Symmetry=a1

         Total DFT energy =    -76.939423510043
@    2     -76.93942351 -2.9D-06  0.00045  0.00038  0.00247  0.00513      0.5
         Total DFT energy =      -76.939424175692

                       DFT Final Molecular Orbital Analysis
                       ------------------------------------

 Vector    1  Occ=2.000000D+00  E=-1.893325D+01  Symmetry=a1

 Vector    2  Occ=2.000000D+00  E=-9.400242D-01  Symmetry=a1

 Vector    3  Occ=2.000000D+00  E=-4.725090D-01  Symmetry=b1

 Vector    4  Occ=2.000000D+00  E=-3.305071D-01  Symmetry=a1

 Vector    5  Occ=2.000000D+00  E=-2.380432D-01  Symmetry=b2

 Vector    6  Occ=0.000000D+00  E= 3.808488D-02  Symmetry=a1

 Vector    7  Occ=0.000000D+00  E= 1.222162D-01  Symmetry=b1

 Vector    8  Occ=0.000000D+00  E= 7.084748D-01  Symmetry=b1

 Vector    9  Occ=0.000000D+00  E= 8.071462D-01  Symmetry=a1

 Vector   10  Occ=0.000000D+00  E= 8.489356D-01  Symmetry=a1

 Vector   11  Occ=0.000000D+00  E= 8.557050D-01  Symmetry=b2

 Vector   12  Occ=0.000000D+00  E= 1.026916D+00  Symmetry=b1

 Vector   13  Occ=0.000000D+00  E= 1.158025D+00  Symmetry=a1

 Vector   14  Occ=0.000000D+00  E= 1.631619D+00  Symmetry=a1

 Vector   15  Occ=0.000000D+00  E= 1.656670D+00  Symmetry=a2

 Vector   16  Occ=0.000000D+00  E= 1.688361D+00  Symmetry=b2

 Vector   17  Occ=0.000000D+00  E= 2.193630D+00  Symmetry=a1

 Vector   18  Occ=0.000000D+00  E= 2.480993D+00  Symmetry=b1

 Vector   19  Occ=0.000000D+00  E= 3.461090D+00  Symmetry=a1

     Multipole analysis of the density
     ---------------------------------

     L   x y z        total         alpha         beta         nuclear
     -   - - -        -----         -----         ----         -------
     0   0 0 0     -0.000000     -5.000000     -5.000000     10.000000

     1   1 0 0      0.000000      0.000000      0.000000      0.000000
     1   0 1 0      0.000000      0.000000      0.000000      0.000000
     1   0 0 1     -0.792627     -0.485648     -0.485648      0.178668

     2   2 0 0     -3.226316     -3.617119     -3.617119      4.007921
     2   1 1 0      0.000000      0.000000      0.000000      0.000000
     2   1 0 1     -0.000000     -0.000000     -0.000000      0.000000
     2   0 2 0     -5.326374     -2.663187     -2.663187      0.000000
     2   0 1 1      0.000000      0.000000      0.000000      0.000000

         Total DFT energy =    -76.939424175692
@    3     -76.93942418 -6.7D-07  0.00000  0.00000  0.00079  0.00161      0.7
@    3     -76.93942418 -6.7D-07  0.00000  0.00000  0.00079  0.00161      0.7

 Output coordinates in a.u. (scale by  1.000000000 to convert to a.u.)

  No.       Tag          Charge          X              Y              Z
 ---- ---------------- ---------- -------------- -------------- --------------
    1 O                    8.0000     0.00000000     0.00000000     0.24692401
    2 H                    1.0000    -1.41561319     0.00000000    -0.89836200
    3 H                    1.0000     1.41561319     0.00000000    -0.89836200

 Total times  cpu:        0.6s     wall:        0.7s
