============================== echo of input deck ==============================
echo
start h2o-hse

geometry units angstrom
O      0.00000000     0.00000000     0.11726921
H      0.75698224     0.00000000    -0.46907685
H     -0.75698224     0.00000000    -0.46907685
end

basis spherical
  * library aug-cc-pvdz
end

# HSE03 functional: 0.25*Ex(HF-SR) - 0.25*Ex(PBE-SR) + Ex(PBE) + Ec(PBE)
# gamma(HF-SR) = gamma(PBE-SR)
dft
  xc hse03
  iterations 100
  direct
end
task dft energy

# HSE06 functional: 0.25*Ex(HF-SR) - 0.25*Ex(PBE-SR) + Ex(PBE) + Ec(PBE)
# gamma(HF-SR) = gamma(PBE-SR)
dft
  xc xpbe96 1.0 xcampbe96 -0.25 cpbe96 1.0 srhfexch 0.25
  cam 0.33 cam_alpha 0.0 cam_beta 1.0
  iterations 100
  direct
end
task dft energy

# HSE06 functional: 0.25*Ex(HF-SR) - 0.25*Ex(PBE-SR) + Ex(PBE) + Ec(PBE)
# gamma(HF-SR) = gamma(PBE-SR)
dft
  xc xpbe96 1.0 xcampbe96 -0.25 cpbe96 1.0 srhfexch 0.25
  cam 0.11 cam_alpha 0.0 cam_beta 1.0
  iterations 100
  direct
end
task dft energy
================================================================================

 Output coordinates in angstroms (scale by  1.889725989 to convert to a.u.)

  No.       Tag          Charge          X              Y              Z
 ---- ---------------- ---------- -------------- -------------- --------------
    1 O                    8.0000     0.00000000     0.00000000     0.11726921
    2 H                    1.0000     0.75698224     0.00000000    -0.46907685
    3 H                    1.0000    -0.75698224     0.00000000    -0.46907685

         Total DFT energy =      -76.388028412979
         Total DFT energy =      -76.388028413827

 Vector    3  Occ=2.000000D+00  E=-5.131212D-01  Symmetry=b1

 Vector    4  Occ=2.000000D+00  E=-3.720387D-01  Symmetry=a1

 Vector    5  Occ=2.000000D+00  E=-2.933980D-01  Symmetry=b2

 Vector    6  Occ=0.000000D+00  E=-2.916648D-02  Symmetry=a1

 Vector    7  Occ=0.000000D+00  E= 2.223501D-02  Symmetry=b1

 Vector    8  Occ=0.000000D+00  E= 9.639686D-02  Symmetry=a1

 Vector    9  Occ=0.000000D+00  E= 1.118799D-01  Symmetry=b2

 Vector   10  Occ=0.000000D+00  E= 1.254074D-01  Symmetry=a1

 Vector   11  Occ=0.000000D+00  E= 1.448996D-01  Symmetry=b1

 Vector   12  Occ=0.000000D+00  E= 1.717655D-01  Symmetry=b1

 Vector   13  Occ=0.000000D+00  E= 2.144040D-01  Symmetry=a1

 Vector   14  Occ=0.000000D+00  E= 2.668159D-01  Symmetry=a2

 Vector   15  Occ=0.000000D+00  E= 2.814701D-01  Symmetry=a1

 Vector   16  Occ=0.000000D+00  E= 3.095578D-01  Symmetry=b2

 Vector   17  Occ=0.000000D+00  E= 4.305425D-01  Symmetry=b1

 Vector   18  Occ=0.000000D+00  E= 4.930708D-01  Symmetry=a1

 Vector   19  Occ=0.000000D+00  E= 5.145792D-01  Symmetry=b1

 Vector   20  Occ=0.000000D+00  E= 6.089276D-01  Symmetry=b1

 Vector   21  Occ=0.000000D+00  E= 7.226529D-01  Symmetry=a1

 Vector   22  Occ=0.000000D+00  E= 8.853164D-01  Symmetry=b2

 Vector   23  Occ=0.000000D+00  E= 8.979275D-01  Symmetry=a1

 Vector   24  Occ=0.000000D+00  E= 9.329561D-01  Symmetry=a2

 Vector   25  Occ=0.000000D+00  E= 1.049993D+00  Symmetry=a1

 Vector   26  Occ=0.000000D+00  E= 1.180264D+00  Symmetry=b2

 Vector   27  Occ=0.000000D+00  E= 1.207578D+00  Symmetry=b1

 Vector   28  Occ=0.000000D+00  E= 1.296513D+00  Symmetry=a1

 Vector   29  Occ=0.000000D+00  E= 1.716496D+00  Symmetry=b1

 Vector   30  Occ=0.000000D+00  E= 1.730859D+00  Symmetry=a2

 Vector   31  Occ=0.000000D+00  E= 1.824930D+00  Symmetry=b2

 Vector   32  Occ=0.000000D+00  E= 2.092607D+00  Symmetry=a1

 Vector   33  Occ=0.000000D+00  E= 2.130520D+00  Symmetry=b1

 Vector   34  Occ=0.000000D+00  E= 2.274009D+00  Symmetry=a1

 Vector   35  Occ=0.000000D+00  E= 2.385956D+00  Symmetry=b1

 Vector   36  Occ=0.000000D+00  E= 2.630711D+00  Symmetry=a1

 Vector   37  Occ=0.000000D+00  E= 3.261472D+00  Symmetry=b2

 Vector   38  Occ=0.000000D+00  E= 3.275585D+00  Symmetry=a1

 Vector   39  Occ=0.000000D+00  E= 3.288857D+00  Symmetry=a2

 Vector   40  Occ=0.000000D+00  E= 3.601872D+00  Symmetry=a1

 Vector   41  Occ=0.000000D+00  E= 3.869018D+00  Symmetry=b1

         Total DFT energy =      -76.380438598624

                       DFT Final Molecular Orbital Analysis
                       ------------------------------------

 Vector    1  Occ=2.000000D+00  E=-1.921672D+01  Symmetry=a1

 Vector    2  Occ=2.000000D+00  E=-1.033896D+00  Symmetry=a1

 Vector    3  Occ=2.000000D+00  E=-5.378334D-01  Symmetry=b1

 Vector    4  Occ=2.000000D+00  E=-3.967192D-01  Symmetry=a1

 Vector    5  Occ=2.000000D+00  E=-3.184740D-01  Symmetry=b2

 Vector    6  Occ=0.000000D+00  E=-2.342484D-02  Symmetry=a1

 Vector    7  Occ=0.000000D+00  E= 2.506304D-02  Symmetry=b1

 Vector    8  Occ=0.000000D+00  E= 1.017951D-01  Symmetry=a1

 Vector    9  Occ=0.000000D+00  E= 1.178634D-01  Symmetry=b2

 Vector   10  Occ=0.000000D+00  E= 1.325565D-01  Symmetry=a1

 Vector   11  Occ=0.000000D+00  E= 1.544102D-01  Symmetry=b1

 Vector   12  Occ=0.000000D+00  E= 1.780446D-01  Symmetry=b1

 Vector   13  Occ=0.000000D+00  E= 2.234345D-01  Symmetry=a1

 Vector   14  Occ=0.000000D+00  E= 2.762430D-01  Symmetry=a2

 Vector   15  Occ=0.000000D+00  E= 2.912551D-01  Symmetry=a1

 Vector   16  Occ=0.000000D+00  E= 3.196682D-01  Symmetry=b2

 Vector   17  Occ=0.000000D+00  E= 4.388146D-01  Symmetry=b1

 Vector   18  Occ=0.000000D+00  E= 5.048415D-01  Symmetry=a1

 Vector   19  Occ=0.000000D+00  E= 5.262264D-01  Symmetry=b1

 Vector   20  Occ=0.000000D+00  E= 6.242626D-01  Symmetry=b1

 Vector   21  Occ=0.000000D+00  E= 7.393520D-01  Symmetry=a1

 Vector   22  Occ=0.000000D+00  E= 9.034494D-01  Symmetry=b2

 Vector   23  Occ=0.000000D+00  E= 9.157427D-01  Symmetry=a1

 Vector   24  Occ=0.000000D+00  E= 9.505445D-01  Symmetry=a2

 Vector   25  Occ=0.000000D+00  E= 1.069863D+00  Symmetry=a1

 Vector   26  Occ=0.000000D+00  E= 1.201583D+00  Symmetry=b2

 Vector   27  Occ=0.000000D+00  E= 1.227088D+00  Symmetry=b1

 Vector   28  Occ=0.000000D+00  E= 1.318029D+00  Symmetry=a1

 Vector   29  Occ=0.000000D+00  E= 1.738405D+00  Symmetry=b1

 Vector   30  Occ=0.000000D+00  E= 1.753315D+00  Symmetry=a2

 Vector   31  Occ=0.000000D+00  E= 1.847529D+00  Symmetry=b2

 Vector   32  Occ=0.000000D+00  E= 2.114478D+00  Symmetry=a1

 Vector   33  Occ=0.000000D+00  E= 2.154241D+00  Symmetry=b1

 Vector   34  Occ=0.000000D+00  E= 2.297997D+00  Symmetry=a1

 Vector   35  Occ=0.000000D+00  E= 2.410385D+00  Symmetry=b1

 Vector   36  Occ=0.000000D+00  E= 2.654889D+00  Symmetry=a1

 Vector   37  Occ=0.000000D+00  E= 3.288719D+00  Symmetry=b2

 Vector   38  Occ=0.000000D+00  E= 3.302635D+00  Symmetry=a1

 Vector   39  Occ=0.000000D+00  E= 3.315923D+00  Symmetry=a2

 Vector   40  Occ=0.000000D+00  E= 3.629394D+00  Symmetry=a1

 Vector   41  Occ=0.000000D+00  E= 3.896885D+00  Symmetry=b1

     Multipole analysis of the density
     ---------------------------------

     L   x y z        total         alpha         beta         nuclear
     -   - - -        -----         -----         ----         -------
     0   0 0 0     -0.000000     -5.000000     -5.000000     10.000000

     1   1 0 0     -0.000000     -0.000000     -0.000000      0.000000
     1   0 1 0     -0.000000     -0.000000     -0.000000      0.000000
     1   0 0 1     -0.732469     -0.366235     -0.366235      0.000000

     2   2 0 0     -3.329199     -3.710899     -3.710899      4.092598
     2   1 1 0      0.000000      0.000000      0.000000      0.000000
     2   1 0 1      0.000000      0.000000      0.000000      0.000000
     2   0 2 0     -5.755039     -2.877520     -2.877520      0.000000
     2   0 1 1     -0.000000     -0.000000     -0.000000      0.000000

 Total times  cpu:        1.2s     wall:        1.2s
