============================== echo of input deck ==============================
title "h2o ssb-d-dft and b3lyp"

echo
start h2o-ssb-d-b3lyp

geometry units au
 O 0       0        0
 H 0       1.430   -1.107
 H 0      -1.430   -1.107
end

basis
  O library 6-31g*
  H library 6-31g*
end

dft
  xc ssb-d
end
task dft hessian

dft
  xc b3lyp
end
task dft hessian
================================================================================

 Output coordinates in a.u. (scale by  1.000000000 to convert to a.u.)

  No.       Tag          Charge          X              Y              Z
 ---- ---------------- ---------- -------------- -------------- --------------
    1 O                    8.0000     0.00000000     0.00000000     0.22140000
    2 H                    1.0000    -1.43000000     0.00000000    -0.88560000
    3 H                    1.0000     1.43000000     0.00000000    -0.88560000

         Total DFT energy =      -76.939209917321

 Vector    1  Occ=2.000000D+00  E=-1.893083D+01

 Vector    2  Occ=2.000000D+00  E=-9.407669D-01

 Vector    3  Occ=2.000000D+00  E=-4.791436D-01

 Vector    4  Occ=2.000000D+00  E=-3.255336D-01

 Vector    5  Occ=2.000000D+00  E=-2.378344D-01

 Vector    6  Occ=0.000000D+00  E= 4.032740D-02

 Vector    7  Occ=0.000000D+00  E= 1.255456D-01

 Vector    8  Occ=0.000000D+00  E= 7.199650D-01

 Vector    9  Occ=0.000000D+00  E= 8.056340D-01

 Vector   10  Occ=0.000000D+00  E= 8.486535D-01

 Vector   11  Occ=0.000000D+00  E= 8.562037D-01

 Vector   12  Occ=0.000000D+00  E= 1.030859D+00

 Vector   13  Occ=0.000000D+00  E= 1.150345D+00

 Vector   14  Occ=0.000000D+00  E= 1.637741D+00

 Vector   15  Occ=0.000000D+00  E= 1.653054D+00

 Vector   16  Occ=0.000000D+00  E= 1.690377D+00

 Vector   17  Occ=0.000000D+00  E= 2.201156D+00

 Vector   18  Occ=0.000000D+00  E= 2.496859D+00

 Vector   19  Occ=0.000000D+00  E= 3.468846D+00

         Total DFT energy =      -76.408696978330

                       DFT Final Molecular Orbital Analysis
                       ------------------------------------

 Vector    1  Occ=2.000000D+00  E=-1.913569D+01

 Vector    2  Occ=2.000000D+00  E=-1.002246D+00

 Vector    3  Occ=2.000000D+00  E=-5.230556D-01

 Vector    4  Occ=2.000000D+00  E=-3.712451D-01

 Vector    5  Occ=2.000000D+00  E=-2.917577D-01

 Vector    6  Occ=0.000000D+00  E= 6.595786D-02

 Vector    7  Occ=0.000000D+00  E= 1.525119D-01

 Vector    8  Occ=0.000000D+00  E= 7.810387D-01

 Vector    9  Occ=0.000000D+00  E= 8.699790D-01

 Vector   10  Occ=0.000000D+00  E= 8.909124D-01

 Vector   11  Occ=0.000000D+00  E= 8.958856D-01

 Vector   12  Occ=0.000000D+00  E= 1.069428D+00

 Vector   13  Occ=0.000000D+00  E= 1.192265D+00

 Vector   14  Occ=0.000000D+00  E= 1.729016D+00

 Vector   15  Occ=0.000000D+00  E= 1.743086D+00

 Vector   16  Occ=0.000000D+00  E= 1.779010D+00

 Vector   17  Occ=0.000000D+00  E= 2.294969D+00

 Vector   18  Occ=0.000000D+00  E= 2.598757D+00

 Vector   19  Occ=0.000000D+00  E= 3.559478D+00

     Multipole analysis of the density
     ---------------------------------

     L   x y z        total         alpha         beta         nuclear
     -   - - -        -----         -----         ----         -------
     0   0 0 0     -0.000000     -5.000000     -5.000000     10.000000

     1   1 0 0     -0.000000     -0.000000     -0.000000      0.000000
     1   0 1 0      0.000000      0.000000      0.000000      0.000000
     1   0 0 1     -0.817654     -0.408827     -0.408827      0.000000

     2   2 0 0     -3.170471     -3.630135     -3.630135      4.089800
     2   1 1 0     -0.000000     -0.000000     -0.000000      0.000000
     2   1 0 1      0.000000      0.000000      0.000000      0.000000
     2   0 2 0     -5.338444     -2.669222     -2.669222      0.000000
     2   0 1 1      0.000000      0.000000      0.000000      0.000000

 Total times  cpu:        3.3s     wall:        3.3s
