============================== echo of input deck ==============================
echo
start h2o-cambeckehh

geometry units angstrom
O      0.00000000     0.00000000     0.11726921
H      0.75698224     0.00000000    -0.46907685
H     -0.75698224     0.00000000    -0.46907685
end

basis spherical
  * library aug-cc-pvdz
end

set int:cando_txs f

dft
  xc beckehandh
  iterations 100
  direct
end
task dft energy

dft
  xc xcamlsd 1.0 pw91lda 0.5 HFExch 1.0
  cam 0.3 cam_alpha 0.5 cam_beta 0.5
  iterations 100
  direct
end
task dft energy
================================================================================

 Output coordinates in angstroms (scale by  1.889725989 to convert to a.u.)

  No.       Tag          Charge          X              Y              Z
 ---- ---------------- ---------- -------------- -------------- --------------
    1 O                    8.0000     0.00000000     0.00000000     0.11726921
    2 H                    1.0000     0.75698224     0.00000000    -0.46907685
    3 H                    1.0000    -0.75698224     0.00000000    -0.46907685

         Total DFT energy =      -75.957527756052

 Vector    3  Occ=2.000000D+00  E=-6.028862D-01  Symmetry=b1

 Vector    4  Occ=2.000000D+00  E=-4.641565D-01  Symmetry=a1

 Vector    5  Occ=2.000000D+00  E=-3.875739D-01  Symmetry=b2

 Vector    6  Occ=0.000000D+00  E= 8.978862D-03  Symmetry=a1

 Vector    7  Occ=0.000000D+00  E= 4.429487D-02  Symmetry=b1

 Vector    8  Occ=0.000000D+00  E= 1.357544D-01  Symmetry=a1

 Vector    9  Occ=0.000000D+00  E= 1.573997D-01  Symmetry=b2

 Vector   10  Occ=0.000000D+00  E= 1.724118D-01  Symmetry=a1

 Vector   11  Occ=0.000000D+00  E= 1.939301D-01  Symmetry=b1

 Vector   12  Occ=0.000000D+00  E= 2.238825D-01  Symmetry=b1

 Vector   13  Occ=0.000000D+00  E= 2.714581D-01  Symmetry=a1

 Vector   14  Occ=0.000000D+00  E= 3.246178D-01  Symmetry=a2

 Vector   15  Occ=0.000000D+00  E= 3.390928D-01  Symmetry=a1

 Vector   16  Occ=0.000000D+00  E= 3.681701D-01  Symmetry=b2

 Vector   17  Occ=0.000000D+00  E= 4.844292D-01  Symmetry=b1

 Vector   18  Occ=0.000000D+00  E= 5.638838D-01  Symmetry=a1

 Vector   19  Occ=0.000000D+00  E= 5.824450D-01  Symmetry=b1

 Vector   20  Occ=0.000000D+00  E= 6.986122D-01  Symmetry=b1

 Vector   21  Occ=0.000000D+00  E= 8.158056D-01  Symmetry=a1

 Vector   22  Occ=0.000000D+00  E= 9.787322D-01  Symmetry=b2

 Vector   23  Occ=0.000000D+00  E= 9.924406D-01  Symmetry=a1

 Vector   24  Occ=0.000000D+00  E= 1.027231D+00  Symmetry=a2

 Vector   25  Occ=0.000000D+00  E= 1.158576D+00  Symmetry=a1

 Vector   26  Occ=0.000000D+00  E= 1.302770D+00  Symmetry=b2

 Vector   27  Occ=0.000000D+00  E= 1.315375D+00  Symmetry=b1

 Vector   28  Occ=0.000000D+00  E= 1.416659D+00  Symmetry=a1

 Vector   29  Occ=0.000000D+00  E= 1.839248D+00  Symmetry=b1

 Vector   30  Occ=0.000000D+00  E= 1.851417D+00  Symmetry=a2

 Vector   31  Occ=0.000000D+00  E= 1.946701D+00  Symmetry=b2

 Vector   32  Occ=0.000000D+00  E= 2.209467D+00  Symmetry=a1

 Vector   33  Occ=0.000000D+00  E= 2.272677D+00  Symmetry=b1

 Vector   34  Occ=0.000000D+00  E= 2.420257D+00  Symmetry=a1

 Vector   35  Occ=0.000000D+00  E= 2.528770D+00  Symmetry=b1

 Vector   36  Occ=0.000000D+00  E= 2.774239D+00  Symmetry=a1

 Vector   37  Occ=0.000000D+00  E= 3.436356D+00  Symmetry=b2

 Vector   38  Occ=0.000000D+00  E= 3.450802D+00  Symmetry=a1

 Vector   39  Occ=0.000000D+00  E= 3.464059D+00  Symmetry=a2

 Vector   40  Occ=0.000000D+00  E= 3.781166D+00  Symmetry=a1

 Vector   41  Occ=0.000000D+00  E= 4.053473D+00  Symmetry=b1

         Total DFT energy =      -76.021780030349

                       DFT Final Molecular Orbital Analysis
                       ------------------------------------

 Vector    1  Occ=2.000000D+00  E=-1.968473D+01  Symmetry=a1

 Vector    2  Occ=2.000000D+00  E=-1.229853D+00  Symmetry=a1

 Vector    3  Occ=2.000000D+00  E=-6.819485D-01  Symmetry=b1

 Vector    4  Occ=2.000000D+00  E=-5.431976D-01  Symmetry=a1

 Vector    5  Occ=2.000000D+00  E=-4.670106D-01  Symmetry=b2

 Vector    6  Occ=0.000000D+00  E= 2.651054D-02  Symmetry=a1

 Vector    7  Occ=0.000000D+00  E= 5.339647D-02  Symmetry=b1

 Vector    8  Occ=0.000000D+00  E= 1.596420D-01  Symmetry=a1

 Vector    9  Occ=0.000000D+00  E= 1.835784D-01  Symmetry=b2

 Vector   10  Occ=0.000000D+00  E= 2.022945D-01  Symmetry=a1

 Vector   11  Occ=0.000000D+00  E= 2.179171D-01  Symmetry=b1

 Vector   12  Occ=0.000000D+00  E= 2.614976D-01  Symmetry=b1

 Vector   13  Occ=0.000000D+00  E= 3.078038D-01  Symmetry=a1

 Vector   14  Occ=0.000000D+00  E= 3.623055D-01  Symmetry=a2

 Vector   15  Occ=0.000000D+00  E= 3.773645D-01  Symmetry=a1

 Vector   16  Occ=0.000000D+00  E= 4.076282D-01  Symmetry=b2

 Vector   17  Occ=0.000000D+00  E= 5.180447D-01  Symmetry=b1

 Vector   18  Occ=0.000000D+00  E= 6.062485D-01  Symmetry=a1

 Vector   19  Occ=0.000000D+00  E= 6.223771D-01  Symmetry=b1

 Vector   20  Occ=0.000000D+00  E= 7.506622D-01  Symmetry=b1

 Vector   21  Occ=0.000000D+00  E= 8.697721D-01  Symmetry=a1

 Vector   22  Occ=0.000000D+00  E= 1.037360D+00  Symmetry=b2

 Vector   23  Occ=0.000000D+00  E= 1.050453D+00  Symmetry=a1

 Vector   24  Occ=0.000000D+00  E= 1.085156D+00  Symmetry=a2

 Vector   25  Occ=0.000000D+00  E= 1.219747D+00  Symmetry=a1

 Vector   26  Occ=0.000000D+00  E= 1.367151D+00  Symmetry=b2

 Vector   27  Occ=0.000000D+00  E= 1.375976D+00  Symmetry=b1

 Vector   28  Occ=0.000000D+00  E= 1.480698D+00  Symmetry=a1

 Vector   29  Occ=0.000000D+00  E= 1.904708D+00  Symmetry=b1

 Vector   30  Occ=0.000000D+00  E= 1.918286D+00  Symmetry=a2

 Vector   31  Occ=0.000000D+00  E= 2.013873D+00  Symmetry=b2

 Vector   32  Occ=0.000000D+00  E= 2.275156D+00  Symmetry=a1

 Vector   33  Occ=0.000000D+00  E= 2.341084D+00  Symmetry=b1

 Vector   34  Occ=0.000000D+00  E= 2.488743D+00  Symmetry=a1

 Vector   35  Occ=0.000000D+00  E= 2.595636D+00  Symmetry=b1

 Vector   36  Occ=0.000000D+00  E= 2.841338D+00  Symmetry=a1

 Vector   37  Occ=0.000000D+00  E= 3.509549D+00  Symmetry=b2

 Vector   38  Occ=0.000000D+00  E= 3.523980D+00  Symmetry=a1

 Vector   39  Occ=0.000000D+00  E= 3.537156D+00  Symmetry=a2

 Vector   40  Occ=0.000000D+00  E= 3.854153D+00  Symmetry=a1

 Vector   41  Occ=0.000000D+00  E= 4.126638D+00  Symmetry=b1

     Multipole analysis of the density
     ---------------------------------

     L   x y z        total         alpha         beta         nuclear
     -   - - -        -----         -----         ----         -------
     0   0 0 0     -0.000000     -5.000000     -5.000000     10.000000

     1   1 0 0     -0.000000     -0.000000     -0.000000      0.000000
     1   0 1 0     -0.000000     -0.000000     -0.000000      0.000000
     1   0 0 1     -0.772229     -0.386115     -0.386115      0.000000

     2   2 0 0     -3.294559     -3.693578     -3.693578      4.092598
     2   1 1 0      0.000000      0.000000      0.000000      0.000000
     2   1 0 1      0.000000      0.000000      0.000000      0.000000
     2   0 2 0     -5.761668     -2.880834     -2.880834      0.000000
     2   0 1 1     -0.000000     -0.000000     -0.000000      0.000000

 Total times  cpu:        0.6s     wall:        0.6s
