 Output coordinates in angstroms (scale by  1.889725989 to convert to a.u.)

  No.       Tag          Charge          X              Y              Z
 ---- ---------------- ---------- -------------- -------------- --------------
    1 O                    8.0000     0.00000000     0.00000000     0.11726921
    2 H                    1.0000     0.75698224     0.00000000    -0.46907685
    3 H                    1.0000    -0.75698224     0.00000000    -0.46907685

         Total DFT energy =      -85.017449917630

                    DFT Final Alpha Molecular Orbital Analysis
                    ------------------------------------------

 Vector    1  Occ=1.000000D+00  E=-2.269087D+01  Symmetry=a1

 Vector    2  Occ=1.000000D+00  E=-2.307338D+00  Symmetry=a1

 Vector    3  Occ=1.000000D+00  E=-1.629829D+00  Symmetry=b1

 Vector    4  Occ=1.000000D+00  E=-1.566431D+00  Symmetry=b2

 Vector    5  Occ=1.000000D+00  E=-1.514059D+00  Symmetry=a1

 Vector    6  Occ=0.000000D+00  E=-4.633400D-01  Symmetry=a1

 Vector    7  Occ=0.000000D+00  E=-4.037146D-01  Symmetry=b1

 Vector    8  Occ=0.000000D+00  E= 2.362952D-02  Symmetry=b1

 Vector    9  Occ=0.000000D+00  E= 3.198527D-02  Symmetry=a1

 Vector   10  Occ=0.000000D+00  E= 1.860833D-01  Symmetry=b2

 Vector   11  Occ=0.000000D+00  E= 2.456795D-01  Symmetry=a1

 Vector   12  Occ=0.000000D+00  E= 4.134056D-01  Symmetry=b1

 Vector   13  Occ=0.000000D+00  E= 5.819115D-01  Symmetry=a1

 Vector   14  Occ=0.000000D+00  E= 5.855718D-01  Symmetry=a2

 Vector   15  Occ=0.000000D+00  E= 7.953301D-01  Symmetry=b2

 Vector   16  Occ=0.000000D+00  E= 8.930400D-01  Symmetry=a1

 Vector   17  Occ=0.000000D+00  E= 1.102795D+00  Symmetry=b1

 Vector   18  Occ=0.000000D+00  E= 1.414143D+00  Symmetry=a1

 Vector   19  Occ=0.000000D+00  E= 1.424793D+00  Symmetry=b1

 Vector   20  Occ=0.000000D+00  E= 2.056405D+00  Symmetry=b2

 Vector   21  Occ=0.000000D+00  E= 2.097303D+00  Symmetry=a2

 Vector   22  Occ=0.000000D+00  E= 2.329872D+00  Symmetry=a1

 Vector   23  Occ=0.000000D+00  E= 2.633982D+00  Symmetry=a1

 Vector   24  Occ=0.000000D+00  E= 2.954292D+00  Symmetry=b1

 Vector    1  Occ=1.000000D+00  E=-2.260829D+01  Symmetry=a1

 Vector    2  Occ=1.000000D+00  E=-2.108908D+00  Symmetry=a1

 Vector    3  Occ=1.000000D+00  E=-1.564125D+00  Symmetry=b1

 Vector    4  Occ=1.000000D+00  E=-1.428822D+00  Symmetry=a1

 Vector    5  Occ=0.000000D+00  E=-8.140637D-01  Symmetry=b2

 Vector    6  Occ=0.000000D+00  E=-4.464312D-01  Symmetry=a1

 Vector    7  Occ=0.000000D+00  E=-4.058027D-01  Symmetry=b1

 Vector    8  Occ=0.000000D+00  E= 5.321690D-03  Symmetry=b1

 Vector    9  Occ=0.000000D+00  E= 2.963347D-02  Symmetry=a1

 Vector   10  Occ=0.000000D+00  E= 2.631638D-01  Symmetry=a1

 Vector   11  Occ=0.000000D+00  E= 3.808185D-01  Symmetry=b2

 Vector   12  Occ=0.000000D+00  E= 4.357722D-01  Symmetry=b1

 Vector   13  Occ=0.000000D+00  E= 5.886450D-01  Symmetry=a1

 Vector   14  Occ=0.000000D+00  E= 6.017012D-01  Symmetry=a2

 Vector   15  Occ=0.000000D+00  E= 8.228664D-01  Symmetry=b2

 Vector   16  Occ=0.000000D+00  E= 9.779165D-01  Symmetry=a1

 Vector   17  Occ=0.000000D+00  E= 1.073189D+00  Symmetry=b1

 Vector   18  Occ=0.000000D+00  E= 1.426340D+00  Symmetry=b1

 Vector   19  Occ=0.000000D+00  E= 1.491450D+00  Symmetry=a1

 Vector   20  Occ=0.000000D+00  E= 2.227020D+00  Symmetry=b2

 Vector   21  Occ=0.000000D+00  E= 2.274125D+00  Symmetry=a2

 Vector   22  Occ=0.000000D+00  E= 2.380514D+00  Symmetry=a1

 Vector   23  Occ=0.000000D+00  E= 2.796352D+00  Symmetry=a1

 Vector   24  Occ=0.000000D+00  E= 2.982135D+00  Symmetry=b1

 Total times  cpu:        1.2s     wall:        1.2s
