============================== echo of input deck ==============================
echo
start h2o_cg_opt_ub3lyp_dat

geometry units au
 O 0       0        0
 H 0       1.430   -1.107
 H 0      -1.430   -1.107
end
charge 1

basis
  O library 6-31g*
  H library 6-31g*
end

dft
  cgmin
  odft
  mult 2
  xc b3lyp
  print "forces" "force components"
  convergence nr 0.0
end

task dft optimize
================================================================================

         Total DFT energy =      -75.952792910270
@ Step       Energy      Delta E   Gmax     Grms     Xrms     Xmax   Walltime
@ ---- ---------------- -------- -------- -------- -------- -------- --------
@    0     -75.95279291  0.0D+00  0.05296  0.04359  0.00000  0.00000      0.3
         Total DFT energy =      -75.958157364723
         Total DFT energy =      -75.958790753293
@    1     -75.95879075 -6.0D-03  0.00116  0.00068  0.06051  0.12835      0.6
         Total DFT energy =      -75.958806577001

 Vector   16  Occ=0.000000D+00  E= 1.340330D+00  Symmetry=b2

 Vector   17  Occ=0.000000D+00  E= 1.800819D+00  Symmetry=a1

 Vector   18  Occ=0.000000D+00  E= 2.054674D+00  Symmetry=b1

 Vector   19  Occ=0.000000D+00  E= 3.100586D+00  Symmetry=a1

         Total DFT energy =      -75.958807047376

 Vector    1  Occ=1.000000D+00  E=-1.971322D+01  Symmetry=a1

 Vector    2  Occ=1.000000D+00  E=-1.508627D+00  Symmetry=a1

 Vector    3  Occ=1.000000D+00  E=-9.911516D-01  Symmetry=b1

 Vector    4  Occ=1.000000D+00  E=-8.689809D-01  Symmetry=b2

 Vector    5  Occ=1.000000D+00  E=-8.514198D-01  Symmetry=a1

 Vector    6  Occ=0.000000D+00  E=-2.972538D-01  Symmetry=a1

 Vector    7  Occ=0.000000D+00  E=-2.183973D-01  Symmetry=b1

 Vector    8  Occ=0.000000D+00  E= 3.869446D-01  Symmetry=a1

 Vector    9  Occ=0.000000D+00  E= 3.912043D-01  Symmetry=b1

 Vector   10  Occ=0.000000D+00  E= 4.095163D-01  Symmetry=b2

 Vector   11  Occ=0.000000D+00  E= 4.790963D-01  Symmetry=a1

 Vector   12  Occ=0.000000D+00  E= 6.433975D-01  Symmetry=b1

 Vector   13  Occ=0.000000D+00  E= 7.417039D-01  Symmetry=a1

 Vector   14  Occ=0.000000D+00  E= 1.231395D+00  Symmetry=a2

 Vector   15  Occ=0.000000D+00  E= 1.269928D+00  Symmetry=a1

 Vector   16  Occ=0.000000D+00  E= 1.275611D+00  Symmetry=b2

 Vector   17  Occ=0.000000D+00  E= 1.743078D+00  Symmetry=a1

 Vector   18  Occ=0.000000D+00  E= 2.044212D+00  Symmetry=b1

 Vector   19  Occ=0.000000D+00  E= 3.056226D+00  Symmetry=a1

 Vector    1  Occ=1.000000D+00  E=-1.968586D+01  Symmetry=a1

 Vector    2  Occ=1.000000D+00  E=-1.435718D+00  Symmetry=a1

 Vector    3  Occ=1.000000D+00  E=-9.699207D-01  Symmetry=b1

 Vector    4  Occ=1.000000D+00  E=-8.211834D-01  Symmetry=a1

 Vector    5  Occ=0.000000D+00  E=-6.025908D-01  Symmetry=b2

 Vector    6  Occ=0.000000D+00  E=-2.865238D-01  Symmetry=a1

 Vector    7  Occ=0.000000D+00  E=-2.120400D-01  Symmetry=b1

 Vector    8  Occ=0.000000D+00  E= 3.891821D-01  Symmetry=b1

 Vector    9  Occ=0.000000D+00  E= 3.985502D-01  Symmetry=a1

 Vector   10  Occ=0.000000D+00  E= 4.956265D-01  Symmetry=a1

 Vector   11  Occ=0.000000D+00  E= 5.057164D-01  Symmetry=b2

 Vector   12  Occ=0.000000D+00  E= 6.586236D-01  Symmetry=b1

 Vector   13  Occ=0.000000D+00  E= 7.696709D-01  Symmetry=a1

 Vector   14  Occ=0.000000D+00  E= 1.297309D+00  Symmetry=a2

 Vector   15  Occ=0.000000D+00  E= 1.301222D+00  Symmetry=a1

 Vector   16  Occ=0.000000D+00  E= 1.340545D+00  Symmetry=b2

 Vector   17  Occ=0.000000D+00  E= 1.801164D+00  Symmetry=a1

 Vector   18  Occ=0.000000D+00  E= 2.054556D+00  Symmetry=b1

 Vector   19  Occ=0.000000D+00  E= 3.100856D+00  Symmetry=a1

@    2     -75.95880705 -1.6D-05  0.00009  0.00007  0.00499  0.00819      0.9
         Total DFT energy =      -75.958807061978

                    DFT Final Alpha Molecular Orbital Analysis
                    ------------------------------------------

 Vector    1  Occ=1.000000D+00  E=-1.971328D+01  Symmetry=a1

 Vector    2  Occ=1.000000D+00  E=-1.508699D+00  Symmetry=a1

 Vector    3  Occ=1.000000D+00  E=-9.912421D-01  Symmetry=b1

 Vector    4  Occ=1.000000D+00  E=-8.690273D-01  Symmetry=b2

 Vector    5  Occ=1.000000D+00  E=-8.514526D-01  Symmetry=a1

 Vector    6  Occ=0.000000D+00  E=-2.972282D-01  Symmetry=a1

 Vector    7  Occ=0.000000D+00  E=-2.183574D-01  Symmetry=b1

 Vector    8  Occ=0.000000D+00  E= 3.869554D-01  Symmetry=a1

 Vector    9  Occ=0.000000D+00  E= 3.912417D-01  Symmetry=b1

 Vector   10  Occ=0.000000D+00  E= 4.094880D-01  Symmetry=b2

 Vector   11  Occ=0.000000D+00  E= 4.790587D-01  Symmetry=a1

 Vector   12  Occ=0.000000D+00  E= 6.433945D-01  Symmetry=b1

 Vector   13  Occ=0.000000D+00  E= 7.416857D-01  Symmetry=a1

 Vector   14  Occ=0.000000D+00  E= 1.231334D+00  Symmetry=a2

 Vector   15  Occ=0.000000D+00  E= 1.269892D+00  Symmetry=a1

 Vector   16  Occ=0.000000D+00  E= 1.275576D+00  Symmetry=b2

 Vector   17  Occ=0.000000D+00  E= 1.743192D+00  Symmetry=a1

 Vector   18  Occ=0.000000D+00  E= 2.044337D+00  Symmetry=b1

 Vector   19  Occ=0.000000D+00  E= 3.056252D+00  Symmetry=a1

 Vector    1  Occ=1.000000D+00  E=-1.968592D+01  Symmetry=a1

 Vector    2  Occ=1.000000D+00  E=-1.435792D+00  Symmetry=a1

 Vector    3  Occ=1.000000D+00  E=-9.700104D-01  Symmetry=b1

 Vector    4  Occ=1.000000D+00  E=-8.212147D-01  Symmetry=a1

 Vector    5  Occ=0.000000D+00  E=-6.026349D-01  Symmetry=b2

 Vector    6  Occ=0.000000D+00  E=-2.864984D-01  Symmetry=a1

 Vector    7  Occ=0.000000D+00  E=-2.120007D-01  Symmetry=b1

 Vector    8  Occ=0.000000D+00  E= 3.892214D-01  Symmetry=b1

 Vector    9  Occ=0.000000D+00  E= 3.985654D-01  Symmetry=a1

 Vector   10  Occ=0.000000D+00  E= 4.955878D-01  Symmetry=a1

 Vector   11  Occ=0.000000D+00  E= 5.056855D-01  Symmetry=b2

 Vector   12  Occ=0.000000D+00  E= 6.586200D-01  Symmetry=b1

 Vector   13  Occ=0.000000D+00  E= 7.696507D-01  Symmetry=a1

 Vector   14  Occ=0.000000D+00  E= 1.297247D+00  Symmetry=a2

 Vector   15  Occ=0.000000D+00  E= 1.301199D+00  Symmetry=a1

 Vector   16  Occ=0.000000D+00  E= 1.340509D+00  Symmetry=b2

 Vector   17  Occ=0.000000D+00  E= 1.801266D+00  Symmetry=a1

 Vector   18  Occ=0.000000D+00  E= 2.054681D+00  Symmetry=b1

 Vector   19  Occ=0.000000D+00  E= 3.100881D+00  Symmetry=a1

         Total DFT energy =    -75.958807061978
@    3     -75.95880706 -1.5D-08  0.00001  0.00001  0.00007  0.00015      1.0
@    3     -75.95880706 -1.5D-08  0.00001  0.00001  0.00007  0.00015      1.0

 Output coordinates in a.u. (scale by  1.000000000 to convert to a.u.)

  No.       Tag          Charge          X              Y              Z
 ---- ---------------- ---------- -------------- -------------- --------------
    1 O                    8.0000     0.00000000     0.00000000     0.21876964
    2 H                    1.0000    -1.56433018     0.00000000    -0.88428482
    3 H                    1.0000     1.56433018     0.00000000    -0.88428482

 Total times  cpu:        0.9s     wall:        1.0s
