============================== echo of input deck ==============================
echo
start h2o

basis
  O library 6-31g*
  H library 6-31g*
end

geometry noautoz noautosym nocenter units au
 O                     0.00000000     0.00000000     0.00000000
 H                     0.23701217     0.50006465    -0.66134565
 H                     0.08518191    -0.91769081    -0.30894068
end
driver
clear
maxiter 40
end

####################################
#      TESTING HARM BONDS          #
####################################

#one spring bond
constraints
  spring bond 1 3 5.0 1.30
  fix atom 1:2
end

task dft optimize

constraints
clear
end

#two spring bonds
constraints
  spring bond 1 3 5.0 1.30
  spring bond 1 2 5.0 1.70
  fix atom 1
end
dft;print low;end
task dft optimize

constraints
clear
end

#same thing but without clearing constraints in between
geometry noautoz noautosym nocenter units au
 O                     0.00000000     0.00000000     0.00000000
 H                     0.23701217     0.50006465    -0.66134565
 H                     0.08518191    -0.91769081    -0.30894068
end

constraints
  spring bond 1 3 5.0 1.30
  fix atom 1:2
end
task dft optimize

constraints
  spring bond 1 2 5.0 1.70
  unfix atom 2
end
task dft optimize

constraints
clear
end

#same thing but using namespaces
geometry noautoz noautosym nocenter units au
 O                     0.00000000     0.00000000     0.00000000
 H                     0.23701217     0.50006465    -0.66134565
 H                     0.08518191    -0.91769081    -0.30894068
end

constraints one
  spring bond 1 3 5.0 1.30
  fix atom 1:2
end

constraints two
  spring bond 1 3 5.0 1.30
  spring bond 1 2 5.0 1.70
  fix atom 1
end

set constraints one
task dft optimize

set constraints two
task dft optimize

================================================================================

         Total DFT energy =      -74.004244573219
@ Step       Energy      Delta E   Gmax     Grms     Xrms     Xmax   Walltime
@ ---- ---------------- -------- -------- -------- -------- -------- --------
@    0     -73.46644727  0.0D+00  5.96333  2.09625  0.00000  0.00000      0.2
         Total DFT energy =      -74.475933748260
         Total DFT energy =      -74.605972078373
@    1     -74.54257396 -1.1D+00  0.43373  0.20436  0.19020  0.48597      0.5
         Total DFT energy =      -74.576960705131
         Total DFT energy =      -74.582750055120
@    2     -74.57254821 -3.0D-02  0.22928  0.07826  0.08031  0.21388      0.7
         Total DFT energy =      -74.595566668911
         Total DFT energy =      -74.645816122074
@    3     -74.54960751  2.3D-02  0.91917  0.32000  0.13611  0.34549      0.9
         Total DFT energy =      -74.619537045158
         Total DFT energy =    -74.619537045158
@    4     -74.57998791 -3.0D-02  0.31823  0.11479  0.05913  0.13132      1.1
         Total DFT energy =      -74.610730621895
         Total DFT energy =      -74.604035693323
@    5     -74.58432686 -4.3D-03  0.03109  0.01119  0.00954  0.02840      1.3
         Total DFT energy =      -74.605623591661
         Total DFT energy =      -74.617955886667
@    6     -74.58613032 -1.8D-03  0.22945  0.07877  0.07879  0.19993      1.5
         Total DFT energy =      -74.605146111977
         Total DFT energy =      -74.608916943564
@    7     -74.58767334 -1.5D-03  0.04504  0.01746  0.02115  0.05816      1.8
         Total DFT energy =      -74.608062090516
         Total DFT energy =      -74.608513738749
@    8     -74.58920074 -1.5D-03  0.01507  0.00578  0.04364  0.10101      2.0
         Total DFT energy =      -74.610096770904
         Total DFT energy =    -74.610096770904
@    9     -74.58937850 -1.8D-04  0.04581  0.01545  0.01862  0.04436      2.2
         Total DFT energy =      -74.608277940279

 Vector   16  Occ=0.000000D+00  E= 1.689526D+00

 Vector   17  Occ=0.000000D+00  E= 2.795874D+00

 Vector   18  Occ=0.000000D+00  E= 3.741111D+00

 Vector   19  Occ=0.000000D+00  E= 4.894025D+00

         Total DFT energy =      -74.607767776766

 Vector    1  Occ=2.000000D+00  E=-1.858814D+01

 Vector    2  Occ=2.000000D+00  E=-1.105793D+00

 Vector    3  Occ=2.000000D+00  E=-6.740133D-01

 Vector    4  Occ=2.000000D+00  E=-3.207069D-01

 Vector    5  Occ=2.000000D+00  E=-2.786218D-01

 Vector    6  Occ=0.000000D+00  E= 1.216205D-01

 Vector    7  Occ=0.000000D+00  E= 2.091631D-01

 Vector    8  Occ=0.000000D+00  E= 7.588126D-01

 Vector    9  Occ=0.000000D+00  E= 8.085402D-01

 Vector   10  Occ=0.000000D+00  E= 9.304125D-01

 Vector   11  Occ=0.000000D+00  E= 1.098568D+00

 Vector   12  Occ=0.000000D+00  E= 1.241598D+00

 Vector   13  Occ=0.000000D+00  E= 1.529887D+00

 Vector   14  Occ=0.000000D+00  E= 1.594895D+00

 Vector   15  Occ=0.000000D+00  E= 1.675371D+00

 Vector   16  Occ=0.000000D+00  E= 1.689747D+00

 Vector   17  Occ=0.000000D+00  E= 2.797233D+00

 Vector   18  Occ=0.000000D+00  E= 3.741536D+00

 Vector   19  Occ=0.000000D+00  E= 4.895219D+00

@   10     -74.58951135 -1.3D-04  0.00322  0.00112  0.00843  0.02491      2.4
         Total DFT energy =      -74.608095437705

 Vector    1  Occ=2.000000D+00  E=-1.858803D+01

 Vector    2  Occ=2.000000D+00  E=-1.104605D+00

 Vector    3  Occ=2.000000D+00  E=-6.755623D-01

 Vector    4  Occ=2.000000D+00  E=-3.197803D-01

 Vector    5  Occ=2.000000D+00  E=-2.785375D-01

 Vector    6  Occ=0.000000D+00  E= 1.219079D-01

 Vector    7  Occ=0.000000D+00  E= 2.087891D-01

 Vector    8  Occ=0.000000D+00  E= 7.595463D-01

 Vector    9  Occ=0.000000D+00  E= 8.085392D-01

 Vector   10  Occ=0.000000D+00  E= 9.322235D-01

 Vector   11  Occ=0.000000D+00  E= 1.094696D+00

 Vector   12  Occ=0.000000D+00  E= 1.242541D+00

 Vector   13  Occ=0.000000D+00  E= 1.529761D+00

 Vector   14  Occ=0.000000D+00  E= 1.594089D+00

 Vector   15  Occ=0.000000D+00  E= 1.676719D+00

 Vector   16  Occ=0.000000D+00  E= 1.690501D+00

 Vector   17  Occ=0.000000D+00  E= 2.796399D+00

 Vector   18  Occ=0.000000D+00  E= 3.742316D+00

 Vector   19  Occ=0.000000D+00  E= 4.898475D+00

         Total DFT energy =    -74.608095437705
@   11     -74.58952087 -9.5D-06  0.00407  0.00136  0.00548  0.01418      2.5
         Total DFT energy =      -74.607924952245

 Vector    1  Occ=2.000000D+00  E=-1.858796D+01

 Vector    2  Occ=2.000000D+00  E=-1.104571D+00

 Vector    3  Occ=2.000000D+00  E=-6.756638D-01

 Vector    4  Occ=2.000000D+00  E=-3.197335D-01

 Vector    5  Occ=2.000000D+00  E=-2.785247D-01

 Vector    6  Occ=0.000000D+00  E= 1.219422D-01

 Vector    7  Occ=0.000000D+00  E= 2.087931D-01

 Vector    8  Occ=0.000000D+00  E= 7.595879D-01

 Vector    9  Occ=0.000000D+00  E= 8.085535D-01

 Vector   10  Occ=0.000000D+00  E= 9.323334D-01

 Vector   11  Occ=0.000000D+00  E= 1.094719D+00

 Vector   12  Occ=0.000000D+00  E= 1.242672D+00

 Vector   13  Occ=0.000000D+00  E= 1.529752D+00

 Vector   14  Occ=0.000000D+00  E= 1.594052D+00

 Vector   15  Occ=0.000000D+00  E= 1.676777D+00

 Vector   16  Occ=0.000000D+00  E= 1.690533D+00

 Vector   17  Occ=0.000000D+00  E= 2.796859D+00

 Vector   18  Occ=0.000000D+00  E= 3.742408D+00

 Vector   19  Occ=0.000000D+00  E= 4.898662D+00

         Total DFT energy =    -74.607924952245
@   12     -74.58952155 -6.8D-07  0.00051  0.00017  0.00028  0.00077      2.6
         Total DFT energy =      -74.607899962942

                       DFT Final Molecular Orbital Analysis
                       ------------------------------------

 Vector    1  Occ=2.000000D+00  E=-1.858796D+01

 Vector    2  Occ=2.000000D+00  E=-1.104536D+00

 Vector    3  Occ=2.000000D+00  E=-6.757413D-01

 Vector    4  Occ=2.000000D+00  E=-3.197062D-01

 Vector    5  Occ=2.000000D+00  E=-2.785293D-01

 Vector    6  Occ=0.000000D+00  E= 1.219552D-01

 Vector    7  Occ=0.000000D+00  E= 2.087811D-01

 Vector    8  Occ=0.000000D+00  E= 7.596118D-01

 Vector    9  Occ=0.000000D+00  E= 8.085487D-01

 Vector   10  Occ=0.000000D+00  E= 9.324065D-01

 Vector   11  Occ=0.000000D+00  E= 1.094600D+00

 Vector   12  Occ=0.000000D+00  E= 1.242722D+00

 Vector   13  Occ=0.000000D+00  E= 1.529741D+00

 Vector   14  Occ=0.000000D+00  E= 1.594015D+00

 Vector   15  Occ=0.000000D+00  E= 1.676823D+00

 Vector   16  Occ=0.000000D+00  E= 1.690556D+00

 Vector   17  Occ=0.000000D+00  E= 2.796920D+00

 Vector   18  Occ=0.000000D+00  E= 3.742441D+00

 Vector   19  Occ=0.000000D+00  E= 4.898792D+00

     Multipole analysis of the density
     ---------------------------------

     L   x y z        total         alpha         beta         nuclear
     -   - - -        -----         -----         ----         -------
     0   0 0 0     -0.000000     -5.000000     -5.000000     10.000000

     1   1 0 0      0.116921     -0.034290     -0.034290      0.185501
     1   0 1 0     -0.381477      0.237640      0.237640     -0.856758
     1   0 0 1     -0.442713      0.153153      0.153153     -0.749020

     2   2 0 0     -4.629418     -2.344123     -2.344123      0.058828
     2   1 1 0      0.166231     -0.011091     -0.011091      0.188413
     2   1 0 1     -0.171484     -0.009627     -0.009627     -0.152231
     2   0 2 0     -3.256802     -2.673917     -2.673917      2.091031
     2   0 1 1     -0.262590     -0.025416     -0.025416     -0.211758

         Total DFT energy =    -74.607899962942
@   13     -74.58952157 -1.8D-08  0.00001  0.00000  0.00021  0.00059      2.7
@   13     -74.58952157 -1.8D-08  0.00001  0.00000  0.00021  0.00059      2.7
         Total DFT energy =      -74.607899965865
@ Step       Energy      Delta E   Gmax     Grms     Xrms     Xmax   Walltime
@ ---- ---------------- -------- -------- -------- -------- -------- --------
@    0     -71.08108810  0.0D+00  9.98579  4.34018  0.00000  0.00000      2.8
         Total DFT energy =      -75.622364530094
         Total DFT energy =      -75.694618435469
@    1     -75.52751432 -4.4D+00  1.39587  0.66701  0.22994  0.39827      3.1
         Total DFT energy =      -75.747768630593
         Total DFT energy =    -75.747768630593
@    2     -75.70242497 -1.7D-01  0.37229  0.13138  0.14248  0.30000      3.2
         Total DFT energy =      -75.708685703483
         Total DFT energy =      -75.726124797831
@    3     -75.70699988 -4.6D-03  0.07614  0.04406  0.04746  0.13741      3.5
         Total DFT energy =      -75.726778782349
         Total DFT energy =      -75.726554507732
@    4     -75.70807599 -1.1D-03  0.03263  0.01558  0.01468  0.02473      3.7
         Total DFT energy =      -75.729389956237
         Total DFT energy =      -75.731920124825
@    5     -75.70847271 -4.0D-04  0.05953  0.02062  0.02232  0.04989      3.9
         Total DFT energy =      -75.730057463547
         Total DFT energy =      -75.729185978288
@    6     -75.70861740 -1.4D-04  0.00407  0.00200  0.00332  0.00822      4.1
         Total DFT energy =      -75.729301529547
         Total DFT energy =      -75.729448883852
@    7     -75.70868506 -6.8D-05  0.00520  0.00232  0.01179  0.02664      4.3
         Total DFT energy =      -75.729146981137
         Total DFT energy =    -75.729146981137
@    8     -75.70868710 -2.0D-06  0.00005  0.00003  0.00042  0.00086      4.4
@    8     -75.70868710 -2.0D-06  0.00005  0.00003  0.00042  0.00086      4.4
         Total DFT energy =      -74.004244571235
@ Step       Energy      Delta E   Gmax     Grms     Xrms     Xmax   Walltime
@ ---- ---------------- -------- -------- -------- -------- -------- --------
@    0     -73.46644727  0.0D+00  5.96333  2.09626  0.00000  0.00000      4.6
         Total DFT energy =      -74.483539467473
         Total DFT energy =      -74.595593555479
@    1     -74.55909549 -1.1D+00  0.21354  0.09510  0.17290  0.45354      4.8
         Total DFT energy =      -74.575610382205
         Total DFT energy =      -74.578066953764
@    2     -74.57187478 -1.3D-02  0.34213  0.11947  0.07646  0.17979      5.1
         Total DFT energy =      -74.600773072296
         Total DFT energy =      -74.681471871758
@    3     -74.38289475  1.9D-01  2.01253  0.73534  0.22499  0.59966      5.3
         Total DFT energy =      -74.651276812234
         Total DFT energy =      -74.625015520057
@    4     -74.57723762 -1.9D-01  0.40852  0.15173  0.09540  0.22312      5.6
         Total DFT energy =      -74.610827026326
         Total DFT energy =      -74.605959170664
@    5     -74.58674275 -9.5D-03  0.02262  0.00764  0.02877  0.06926      5.8
         Total DFT energy =      -74.606024205715
         Total DFT energy =      -74.608455191684
@    6     -74.58863720 -1.9D-03  0.02102  0.00884  0.04217  0.11835      6.0
         Total DFT energy =      -74.613605863280
         Total DFT energy =      -74.611068736825
@    7     -74.58899993 -3.6D-04  0.06776  0.02360  0.02164  0.06094      6.2
         Total DFT energy =      -74.609843475768
         Total DFT energy =      -74.608766561682
         Total DFT energy =      -75.733192533517
@    5     -75.70345356 -1.8D-03  0.16758  0.08605  0.08128  0.22388      8.3
         Total DFT energy =      -75.728515381019
         Total DFT energy =      -75.727655280810
@    6     -75.70628376 -2.8D-03  0.02226  0.01109  0.02232  0.04594      8.5
         Total DFT energy =      -75.734598230076
         Total DFT energy =      -75.733142656690
@    7     -75.70722179 -9.4D-04  0.09087  0.04083  0.03313  0.08011      8.7
         Total DFT energy =      -75.732154906260
         Total DFT energy =      -75.731344106078
@    8     -75.70845389 -1.2D-03  0.04970  0.01734  0.03225  0.08576      8.9
         Total DFT energy =      -75.728053767887
         Total DFT energy =      -75.728496298923
@    9     -75.70863429 -1.8D-04  0.01134  0.00419  0.00648  0.01277      9.1
         Total DFT energy =      -75.730089321307
         Total DFT energy =      -75.729374046923
@   10     -75.70867974 -4.5D-05  0.00743  0.00375  0.00838  0.02071      9.3
         Total DFT energy =      -75.729237605716
         Total DFT energy =      -75.729224007056
@   11     -75.70868702 -7.3D-06  0.00150  0.00052  0.00226  0.00591      9.5
         Total DFT energy =      -75.729148378243
         Total DFT energy =    -75.729148378243
@   12     -75.70868712 -9.9D-08  0.00004  0.00002  0.00011  0.00020      9.6
@   12     -75.70868712 -9.9D-08  0.00004  0.00002  0.00011  0.00020      9.6
         Total DFT energy =      -74.004244570915
@ Step       Energy      Delta E   Gmax     Grms     Xrms     Xmax   Walltime
@ ---- ---------------- -------- -------- -------- -------- -------- --------
@    0     -73.46644727  0.0D+00  5.96333  2.09626  0.00000  0.00000      9.8
         Total DFT energy =      -74.533202190239
         Total DFT energy =      -74.588353154730
@    1     -74.56598361 -1.1D+00  0.08166  0.02914  0.16064  0.36957     10.0
         Total DFT energy =      -74.582219942650
         Total DFT energy =      -74.582249421797
@    2     -74.57387631 -7.9D-03  0.27431  0.09485  0.06663  0.18823     10.2
         Total DFT energy =      -74.619213185465
         Total DFT energy =    -74.619213185465
@    3     -74.58179145 -7.9D-03  0.28762  0.10520  0.10005  0.26596     10.4
         Total DFT energy =      -74.596014041306
         Total DFT energy =      -74.606990956559
@    4     -74.58393118 -2.1D-03  0.06203  0.02782  0.02615  0.06802     10.6
         Total DFT energy =      -74.607527765028
         Total DFT energy =      -74.611132767451
@    5     -74.58681040 -2.9D-03  0.09678  0.03602  0.04166  0.11951     10.8
         Total DFT energy =      -74.612039203264
         Total DFT energy =      -74.613918647593
@    6     -74.58842097 -1.6D-03  0.12828  0.04447  0.04643  0.12604     11.0
         Total DFT energy =      -74.606215001997
         Total DFT energy =      -74.607523939283
@    7     -74.58918590 -7.6D-04  0.00611  0.00277  0.00894  0.02629     11.2
         Total DFT energy =      -74.608393286015
         Total DFT energy =      -74.609893296164
@    8     -74.58944831 -2.6D-04  0.04112  0.01397  0.02907  0.07397     11.5
         Total DFT energy =      -74.608120206479
         Total DFT energy =    -74.608120206479
@    9     -74.58950503 -5.7D-05  0.00403  0.00149  0.00377  0.01086     11.6
         Total DFT energy =      -74.607997299332
         Total DFT energy =      -74.607952455680
@   10     -74.58952148 -1.6D-05  0.00106  0.00036  0.00713  0.01603     11.8
         Total DFT energy =      -74.607905633682
         Total DFT energy =    -74.607905633682
@   11     -74.58952157 -9.4D-08  0.00013  0.00004  0.00040  0.00089     11.9
@   11     -74.58952157 -9.4D-08  0.00013  0.00004  0.00040  0.00089     11.9
         Total DFT energy =    -74.607905633682
@ Step       Energy      Delta E   Gmax     Grms     Xrms     Xmax   Walltime
@ ---- ---------------- -------- -------- -------- -------- -------- --------
@    0     -71.08108811  0.0D+00  9.72094  4.27045  0.00000  0.00000     11.9
         Total DFT energy =      -75.647136400200
         Total DFT energy =      -75.730960231800
@    1     -75.47974134 -4.4D+00  1.38572  0.74377  0.26697  0.39887     12.2
         Total DFT energy =      -75.693295589312
         Total DFT energy =      -75.699818912543
@    2     -75.69420765 -2.1D-01  0.42212  0.16094  0.12390  0.26322     12.4
         Total DFT energy =      -75.741194791794
         Total DFT energy =      -75.709316076071
@    3     -75.69967351 -5.5D-03  0.25223  0.08474  0.02771  0.05210     12.6
         Total DFT energy =      -75.719890227960
         Total DFT energy =      -75.729401609111
@    4     -75.70368202 -4.0D-03  0.10874  0.04048  0.03217  0.08161     12.9
         Total DFT energy =      -75.735934595156
         Total DFT energy =    -75.735934595156
@    5     -75.70559833 -1.9D-03  0.18491  0.06904  0.05051  0.12523     13.0
         Total DFT energy =      -75.728756930362
         Total DFT energy =      -75.727945009907
@    6     -75.70804161 -2.4D-03  0.01808  0.00947  0.02049  0.05209     13.2
         Total DFT energy =      -75.732306243385
         Total DFT energy =      -75.731768231214
@    7     -75.70847394 -4.3D-04  0.05047  0.01992  0.02419  0.05194     13.5
         Total DFT energy =      -75.730138229816
         Total DFT energy =      -75.729427137902
@    8     -75.70866466 -1.9D-04  0.00801  0.00463  0.00860  0.02224     13.7
         Total DFT energy =      -75.729341697318
         Total DFT energy =      -75.729329428512
@    9     -75.70868662 -2.2D-05  0.00344  0.00118  0.00518  0.01182     13.9
         Total DFT energy =      -75.729092319031
         Total DFT energy =    -75.729092319031
@   10     -75.70868700 -3.8D-07  0.00121  0.00047  0.00041  0.00115     14.0
         Total DFT energy =      -75.729150962448
         Total DFT energy =    -75.729150962448
@   11     -75.70868712 -1.2D-07  0.00001  0.00001  0.00027  0.00059     14.1
@   11     -75.70868712 -1.2D-07  0.00001  0.00001  0.00027  0.00059     14.1

 Output coordinates in a.u. (scale by  1.000000000 to convert to a.u.)

  No.       Tag          Charge          X              Y              Z
 ---- ---------------- ---------- -------------- -------------- --------------
    1 O                    8.0000     0.00000000     0.00000000     0.00000000
    2 H                    1.0000     0.96783124     0.85187563    -1.11985687
    3 H                    1.0000     0.28383080    -1.33312451    -0.03681584

 Total times  cpu:       13.8s     wall:       14.1s
