 Output coordinates in angstroms (scale by  1.889725989 to convert to a.u.)

  No.       Tag          Charge          X              Y              Z
 ---- ---------------- ---------- -------------- -------------- --------------
    1 O                    8.0000     0.00000000     0.00000000     0.11726921
    2 H                    1.0000     0.75698224     0.00000000    -0.46907685
    3 H                    1.0000    -0.75698224     0.00000000    -0.46907685

         Total DFT energy =      -85.852205444547

                       DFT Final Molecular Orbital Analysis
                       ------------------------------------

 Vector    2  Occ=2.000000D+00  E=-1.665309D+00  Symmetry=a1

 Vector    3  Occ=2.000000D+00  E=-1.051158D+00  Symmetry=b1

 Vector    4  Occ=2.000000D+00  E=-9.179331D-01  Symmetry=a1

 Vector    5  Occ=2.000000D+00  E=-8.468082D-01  Symmetry=b2

 Vector    6  Occ=0.000000D+00  E=-9.785856D-02  Symmetry=a1

 Vector    7  Occ=0.000000D+00  E=-2.670695D-02  Symmetry=b1

 Vector    8  Occ=0.000000D+00  E= 3.405927D-01  Symmetry=b1

 Vector    9  Occ=0.000000D+00  E= 3.785674D-01  Symmetry=a1

 Vector   10  Occ=0.000000D+00  E= 6.834924D-01  Symmetry=a1

 Vector   11  Occ=0.000000D+00  E= 6.850047D-01  Symmetry=b2

 Vector   12  Occ=0.000000D+00  E= 8.255940D-01  Symmetry=b1

 Vector   13  Occ=0.000000D+00  E= 9.920382D-01  Symmetry=a1

 Vector   14  Occ=0.000000D+00  E= 1.006509D+00  Symmetry=a2

 Vector   15  Occ=0.000000D+00  E= 1.214446D+00  Symmetry=b2

 Total times  cpu:        3.8s     wall:        3.9s
