============================== echo of input deck ==============================
echo
start h2o_diag_to_cg_dat

geometry units au
 O 0       0        0
 H 0       1.430   -1.107
 H 0      -1.430   -1.107
end
charge 1

basis
  O library 6-31g*
  H library 6-31g*
end

dft
  xc b3lyp
  mult 2
  iterations 2
  tolerances tight
  convergence energy 1d-8
end

task dft ignore

dft
  cgmin
  odft
  xc b3lyp
  iterations 15
  convergence nr 0.0
end

task dft
================================================================================

 Output coordinates in a.u. (scale by  1.000000000 to convert to a.u.)

  No.       Tag          Charge          X              Y              Z
 ---- ---------------- ---------- -------------- -------------- --------------
    1 O                    8.0000     0.00000000     0.00000000     0.22140000
    2 H                    1.0000    -1.43000000     0.00000000    -0.88560000
    3 H                    1.0000     1.43000000     0.00000000    -0.88560000

         Total DFT energy =      -75.798860966392

 Vector    1  Occ=1.000000D+00  E=-1.974987D+01  Symmetry=a1

 Vector    2  Occ=1.000000D+00  E=-1.563452D+00  Symmetry=a1

 Vector    3  Occ=1.000000D+00  E=-1.032444D+00  Symmetry=b1

 Vector    4  Occ=1.000000D+00  E=-8.998861D-01  Symmetry=b2

 Vector    5  Occ=1.000000D+00  E=-8.908890D-01  Symmetry=a1

 Vector    6  Occ=0.000000D+00  E=-2.856751D-01  Symmetry=a1

 Vector    7  Occ=0.000000D+00  E=-2.057045D-01  Symmetry=b1

 Vector    8  Occ=0.000000D+00  E= 3.743413D-01  Symmetry=b1

 Vector    9  Occ=0.000000D+00  E= 3.896244D-01  Symmetry=b2

 Vector   10  Occ=0.000000D+00  E= 4.161082D-01  Symmetry=a1

 Vector   11  Occ=0.000000D+00  E= 4.747122D-01  Symmetry=a1

 Vector   12  Occ=0.000000D+00  E= 6.302133D-01  Symmetry=b1

 Vector   13  Occ=0.000000D+00  E= 7.519890D-01  Symmetry=a1

 Vector   14  Occ=0.000000D+00  E= 1.199926D+00  Symmetry=a2

 Vector   15  Occ=0.000000D+00  E= 1.224346D+00  Symmetry=a1

 Vector   16  Occ=0.000000D+00  E= 1.238473D+00  Symmetry=b2

 Vector   17  Occ=0.000000D+00  E= 1.781576D+00  Symmetry=a1

 Vector   18  Occ=0.000000D+00  E= 2.120242D+00  Symmetry=b1

 Vector   19  Occ=0.000000D+00  E= 3.055151D+00  Symmetry=a1

 Vector    1  Occ=1.000000D+00  E=-1.972527D+01  Symmetry=a1

 Vector    2  Occ=1.000000D+00  E=-1.495242D+00  Symmetry=a1

 Vector    3  Occ=1.000000D+00  E=-1.010676D+00  Symmetry=b1

 Vector    4  Occ=1.000000D+00  E=-8.608245D-01  Symmetry=a1

 Vector    5  Occ=0.000000D+00  E=-6.389548D-01  Symmetry=b2

 Vector    6  Occ=0.000000D+00  E=-2.747241D-01  Symmetry=a1

 Vector    7  Occ=0.000000D+00  E=-1.992571D-01  Symmetry=b1

 Vector    8  Occ=0.000000D+00  E= 3.769720D-01  Symmetry=b1

 Vector    9  Occ=0.000000D+00  E= 4.329943D-01  Symmetry=a1

 Vector   10  Occ=0.000000D+00  E= 4.816492D-01  Symmetry=b2

 Vector   11  Occ=0.000000D+00  E= 4.945733D-01  Symmetry=a1

 Vector   12  Occ=0.000000D+00  E= 6.435514D-01  Symmetry=b1

 Vector   13  Occ=0.000000D+00  E= 7.814951D-01  Symmetry=a1

 Vector   14  Occ=0.000000D+00  E= 1.249670D+00  Symmetry=a1

 Vector   15  Occ=0.000000D+00  E= 1.264436D+00  Symmetry=a2

 Vector   16  Occ=0.000000D+00  E= 1.302297D+00  Symmetry=b2

 Vector   17  Occ=0.000000D+00  E= 1.840278D+00  Symmetry=a1

 Vector   18  Occ=0.000000D+00  E= 2.132311D+00  Symmetry=b1

 Vector   19  Occ=0.000000D+00  E= 3.097285D+00  Symmetry=a1

     Multipole analysis of the density
     ---------------------------------

     L   x y z        total         alpha         beta         nuclear
     -   - - -        -----         -----         ----         -------
     0   0 0 0      1.000000     -5.000000     -4.000000     10.000000

     1   1 0 0      0.000000      0.000000      0.000000      0.000000
     1   0 1 0      0.000000      0.000000      0.000000      0.000000
     1   0 0 1     -0.916976     -0.557098     -0.359878      0.000000

     2   2 0 0     -1.571335     -2.955816     -2.705318      4.089800
     2   1 1 0      0.000000      0.000000      0.000000      0.000000
     2   1 0 1     -0.000000     -0.000000      0.000000      0.000000
     2   0 2 0     -3.503329     -2.279410     -1.223919      0.000000
     2   0 1 1      0.000000      0.000000      0.000000      0.000000

         Total DFT energy =      -75.952792889401

                    DFT Final Alpha Molecular Orbital Analysis
                    ------------------------------------------

 Vector    1  Occ=1.000000D+00  E=-1.972095D+01  Symmetry=a1

 Vector    2  Occ=1.000000D+00  E=-1.544924D+00  Symmetry=a1

 Vector    3  Occ=1.000000D+00  E=-1.016222D+00  Symmetry=b1

 Vector    4  Occ=1.000000D+00  E=-8.843197D-01  Symmetry=b2

 Vector    5  Occ=1.000000D+00  E=-8.761238D-01  Symmetry=a1

 Vector    6  Occ=0.000000D+00  E=-2.779871D-01  Symmetry=a1

 Vector    7  Occ=0.000000D+00  E=-1.973380D-01  Symmetry=b1

 Vector    8  Occ=0.000000D+00  E= 3.841547D-01  Symmetry=b1

 Vector    9  Occ=0.000000D+00  E= 4.011472D-01  Symmetry=b2

 Vector   10  Occ=0.000000D+00  E= 4.288917D-01  Symmetry=a1

 Vector   11  Occ=0.000000D+00  E= 4.840197D-01  Symmetry=a1

 Vector   12  Occ=0.000000D+00  E= 6.418539D-01  Symmetry=b1

 Vector   13  Occ=0.000000D+00  E= 7.633247D-01  Symmetry=a1

 Vector   14  Occ=0.000000D+00  E= 1.215145D+00  Symmetry=a2

 Vector   15  Occ=0.000000D+00  E= 1.240019D+00  Symmetry=a1

 Vector   16  Occ=0.000000D+00  E= 1.253436D+00  Symmetry=b2

 Vector   17  Occ=0.000000D+00  E= 1.794572D+00  Symmetry=a1

 Vector   18  Occ=0.000000D+00  E= 2.134557D+00  Symmetry=b1

 Vector   19  Occ=0.000000D+00  E= 3.069708D+00  Symmetry=a1

 Vector    1  Occ=1.000000D+00  E=-1.969370D+01  Symmetry=a1

 Vector    2  Occ=1.000000D+00  E=-1.473807D+00  Symmetry=a1

 Vector    3  Occ=1.000000D+00  E=-9.945095D-01  Symmetry=b1

 Vector    4  Occ=1.000000D+00  E=-8.451450D-01  Symmetry=a1

 Vector    5  Occ=0.000000D+00  E=-6.175265D-01  Symmetry=b2

 Vector    6  Occ=0.000000D+00  E=-2.674232D-01  Symmetry=a1

 Vector    7  Occ=0.000000D+00  E=-1.913965D-01  Symmetry=b1

 Vector    8  Occ=0.000000D+00  E= 3.829138D-01  Symmetry=b1

 Vector    9  Occ=0.000000D+00  E= 4.450030D-01  Symmetry=a1

 Vector   10  Occ=0.000000D+00  E= 4.968837D-01  Symmetry=b2

 Vector   11  Occ=0.000000D+00  E= 5.023223D-01  Symmetry=a1

 Vector   12  Occ=0.000000D+00  E= 6.567438D-01  Symmetry=b1

 Vector   13  Occ=0.000000D+00  E= 7.925976D-01  Symmetry=a1

 Vector   14  Occ=0.000000D+00  E= 1.264890D+00  Symmetry=a1

 Vector   15  Occ=0.000000D+00  E= 1.280640D+00  Symmetry=a2

 Vector   16  Occ=0.000000D+00  E= 1.317931D+00  Symmetry=b2

 Vector   17  Occ=0.000000D+00  E= 1.853678D+00  Symmetry=a1

 Vector   18  Occ=0.000000D+00  E= 2.145126D+00  Symmetry=b1

 Vector   19  Occ=0.000000D+00  E= 3.113797D+00  Symmetry=a1

 Total times  cpu:        0.3s     wall:        1.4s
