============================== echo of input deck ==============================
echo
start h2o_bnl

geometry noautoz noautosym units angstrom
O        0.000000    0.119088    0.000000
H        0.759830   -0.476352    0.000000
H       -0.759830   -0.476350    0.000000
end

basis spherical
 * library cc-pvtz
end

basis "cd basis"
O  library "Ahlrichs Coulomb Fitting"
H  library "Ahlrichs Coulomb Fitting"
end

set int:acc_std 1d-15
set int:cando_txs f

dft
 xc xbnl07 0.90 lyp 1.00 hfexch 1.00
 cam 0.5 cam_alpha 0.0 cam_beta 1.0
end
task dft energy

property
 dipole
end
task dft property

tddft
 nroots 5
 notriplet
 algorithm 3
end
task tddft energy
================================================================================

 Output coordinates in angstroms (scale by  1.889725989 to convert to a.u.)

  No.       Tag          Charge          X              Y              Z
 ---- ---------------- ---------- -------------- -------------- --------------
    1 O                    8.0000     0.00000000     0.11908780     0.00000000
    2 H                    1.0000     0.75983000    -0.47635220     0.00000000
    3 H                    1.0000    -0.75983000    -0.47635020     0.00000000

         Total DFT energy =      -75.218551384766
         Total DFT energy =      -75.218551087314

 Vector   37  Occ=0.000000D+00  E= 3.937700D+00

 Vector   38  Occ=0.000000D+00  E= 4.143339D+00

 Vector   39  Occ=0.000000D+00  E= 4.179434D+00

 Vector   40  Occ=0.000000D+00  E= 4.390169D+00

 Vector   41  Occ=0.000000D+00  E= 4.438989D+00

 Vector   42  Occ=0.000000D+00  E= 4.661035D+00

 Vector   43  Occ=0.000000D+00  E= 4.897346D+00

 Vector   44  Occ=0.000000D+00  E= 4.991644D+00

 Vector   45  Occ=0.000000D+00  E= 5.246698D+00

 Vector   46  Occ=0.000000D+00  E= 5.760503D+00

 Vector   47  Occ=0.000000D+00  E= 6.260172D+00

 Vector   48  Occ=0.000000D+00  E= 6.560491D+00

 Vector   49  Occ=0.000000D+00  E= 6.568457D+00

 Vector   50  Occ=0.000000D+00  E= 6.653007D+00

 Vector   51  Occ=0.000000D+00  E= 6.691286D+00

 Vector   52  Occ=0.000000D+00  E= 6.720484D+00

 Vector   53  Occ=0.000000D+00  E= 6.827482D+00

 Vector   54  Occ=0.000000D+00  E= 6.929801D+00

 Vector   55  Occ=0.000000D+00  E= 7.110935D+00

 Vector   56  Occ=0.000000D+00  E= 7.449390D+00

 Vector   57  Occ=0.000000D+00  E= 7.899201D+00

 Vector   58  Occ=0.000000D+00  E= 1.226570D+01

         Total DFT energy =      -75.218551087493

                       DFT Final Molecular Orbital Analysis
                       ------------------------------------

 Vector    1  Occ=2.000000D+00  E=-1.866226D+01

 Vector    2  Occ=2.000000D+00  E=-1.144985D+00

 Vector    3  Occ=2.000000D+00  E=-6.517715D-01

 Vector    4  Occ=2.000000D+00  E=-5.128500D-01

 Vector    5  Occ=2.000000D+00  E=-4.401856D-01

 Vector    6  Occ=0.000000D+00  E= 1.105884D-01

 Vector    7  Occ=0.000000D+00  E= 1.753989D-01

 Vector    8  Occ=0.000000D+00  E= 4.875535D-01

 Vector    9  Occ=0.000000D+00  E= 5.439155D-01

 Vector   10  Occ=0.000000D+00  E= 6.127501D-01

 Vector   11  Occ=0.000000D+00  E= 7.194694D-01

 Vector   12  Occ=0.000000D+00  E= 7.367170D-01

 Vector   13  Occ=0.000000D+00  E= 7.388084D-01

 Vector   14  Occ=0.000000D+00  E= 8.016775D-01

 Vector   15  Occ=0.000000D+00  E= 8.933690D-01

 Vector   16  Occ=0.000000D+00  E= 1.065407D+00

 Vector   17  Occ=0.000000D+00  E= 1.132181D+00

 Vector   18  Occ=0.000000D+00  E= 1.421509D+00

 Vector   19  Occ=0.000000D+00  E= 1.452606D+00

 Vector   20  Occ=0.000000D+00  E= 1.921331D+00

 Vector   21  Occ=0.000000D+00  E= 1.942263D+00

 Vector   22  Occ=0.000000D+00  E= 1.959813D+00

 Vector   23  Occ=0.000000D+00  E= 2.045203D+00

 Vector   24  Occ=0.000000D+00  E= 2.113128D+00

 Vector   25  Occ=0.000000D+00  E= 2.427270D+00

 Vector   26  Occ=0.000000D+00  E= 2.785582D+00

 Vector   27  Occ=0.000000D+00  E= 3.205452D+00

 Vector   28  Occ=0.000000D+00  E= 3.343857D+00

 Vector   29  Occ=0.000000D+00  E= 3.430370D+00

 Vector   30  Occ=0.000000D+00  E= 3.509450D+00

 Vector   31  Occ=0.000000D+00  E= 3.535518D+00

 Vector   32  Occ=0.000000D+00  E= 3.687507D+00

 Vector   33  Occ=0.000000D+00  E= 3.744610D+00

 Vector   34  Occ=0.000000D+00  E= 3.806385D+00

 Vector   35  Occ=0.000000D+00  E= 3.850456D+00

 Vector   36  Occ=0.000000D+00  E= 3.866447D+00

 Vector   37  Occ=0.000000D+00  E= 3.937700D+00

 Vector   38  Occ=0.000000D+00  E= 4.143339D+00

 Vector   39  Occ=0.000000D+00  E= 4.179434D+00

 Vector   40  Occ=0.000000D+00  E= 4.390169D+00

 Vector   41  Occ=0.000000D+00  E= 4.438990D+00

 Vector   42  Occ=0.000000D+00  E= 4.661035D+00

 Vector   43  Occ=0.000000D+00  E= 4.897347D+00

 Vector   44  Occ=0.000000D+00  E= 4.991645D+00

 Vector   45  Occ=0.000000D+00  E= 5.246698D+00

 Vector   46  Occ=0.000000D+00  E= 5.760504D+00

 Vector   47  Occ=0.000000D+00  E= 6.260172D+00

 Vector   48  Occ=0.000000D+00  E= 6.560492D+00

 Vector   49  Occ=0.000000D+00  E= 6.568458D+00

 Vector   50  Occ=0.000000D+00  E= 6.653007D+00

 Vector   51  Occ=0.000000D+00  E= 6.691286D+00

 Vector   52  Occ=0.000000D+00  E= 6.720484D+00

 Vector   53  Occ=0.000000D+00  E= 6.827483D+00

 Vector   54  Occ=0.000000D+00  E= 6.929802D+00

 Vector   55  Occ=0.000000D+00  E= 7.110935D+00

 Vector   56  Occ=0.000000D+00  E= 7.449390D+00

 Vector   57  Occ=0.000000D+00  E= 7.899202D+00

 Vector   58  Occ=0.000000D+00  E= 1.226570D+01

     Multipole analysis of the density
     ---------------------------------

     L   x y z        total         alpha         beta         nuclear
     -   - - -        -----         -----         ----         -------
     0   0 0 0     -0.000000     -5.000000     -5.000000     10.000000

     1   1 0 0     -0.000000     -0.000000     -0.000000      0.000000
     1   0 1 0     -0.803751     -0.401876     -0.401876      0.000000
     1   0 0 1     -0.000000     -0.000000     -0.000000      0.000000

     2   2 0 0     -3.369687     -3.746567     -3.746567      4.123448
     2   1 1 0     -0.000002      0.000002      0.000002     -0.000005
     2   1 0 1      0.000000      0.000000      0.000000      0.000000
     2   0 2 0     -4.738954     -3.382367     -3.382367      2.025780
     2   0 1 1      0.000000      0.000000      0.000000      0.000000

  Root   1 singlet a              0.282446117 a.u.                7.6858 eV
     Dipole Oscillator Strength                    0.0329819633
  Root   2 singlet a              0.353212839 a.u.                9.6114 eV
     Dipole Oscillator Strength                    0.0000000000
  Root   3 singlet a              0.364092129 a.u.                9.9075 eV
     Dipole Oscillator Strength                    0.0857119351
  Root   4 singlet a              0.439096868 a.u.               11.9484 eV
     Dipole Oscillator Strength                    0.0374952967
  Root   5 singlet a              0.498122832 a.u.               13.5546 eV
     Dipole Oscillator Strength                    0.2171601246
 Total times  cpu:       15.5s     wall:       15.6s
