============================== echo of input deck ==============================
echo

start He_scs-mp2_cc-vqz

memory total 1000 mb

geometry
 He     0.0 0.0 0.0
end

basis "ao basis" spherical
  * library cc-pvqz
end

basis "cc-pVQZ-RI" spherical
#BASIS SET: (5s,4p,3d,2f)
He    S
     29.251976741            1.0000000
He    S
      6.3479959175           1.0000000
He    S
      3.0141166013           1.0000000
He    S
      0.83396087296          1.0000000
He    S
      0.47964730615          1.0000000
He    P
      8.6905135631           1.0000000
He    P
      2.5796767548           1.0000000
He    P
      1.1943303704           1.0000000
He    P
      0.71278867940          1.0000000
He    D
      7.2944834617           1.0000000
He    D
      4.3632208275           1.0000000
He    D
      1.7345900404           1.0000000
He    F
      4.3507069127           1.0000000
He    F
      2.7082979618           1.0000000
end

set "ri-mp2 basis" "cc-pVQZ-RI"

mp2
  scs
  freeze 0
  scratchdisk 4096
end
task mp2 energy
task direct_mp2 energy
task rimp2 energy

mp2
  scs; fos 1.0; fss 1.0
  freeze 0
  scratchdisk 4096
end
task mp2 energy
task direct_mp2 energy
task rimp2 energy

mp2
  scs; fos 0.0; fss 0.0
  freeze 0
  scratchdisk 4096
end
task mp2 energy
task direct_mp2 energy
task rimp2 energy

mp2
  scs; fos 1.0; fss 0.0
  freeze 0
  scratchdisk 4096
end
task mp2 energy
task direct_mp2 energy
task rimp2 energy

mp2
  scs; fos 0.0; fss 1.0
  freeze 0
  scratchdisk 4096
end
task mp2 energy
task direct_mp2 energy
task rimp2 energy

mp2
  scs; fos 1000.0; fss 1000.0
  freeze 0
  scratchdisk 4096
end
task mp2 energy
task direct_mp2 energy
task rimp2 energy

================================================================================

 Output coordinates in angstroms (scale by  1.889725989 to convert to a.u.)

  No.       Tag          Charge          X              Y              Z
 ---- ---------------- ---------- -------------- -------------- --------------
    1 He                   2.0000     0.00000000     0.00000000     0.00000000

         Total SCF energy =     -2.861514227228

 Vector    1  Occ=2.000000D+00  E=-9.178488D-01

 Vector    2  Occ=0.000000D+00  E= 4.965287D-01

 Vector    3  Occ=0.000000D+00  E= 1.089885D+00

 Vector    4  Occ=0.000000D+00  E= 1.089885D+00

 Vector    5  Occ=0.000000D+00  E= 1.089885D+00

 Vector    6  Occ=0.000000D+00  E= 2.783494D+00

 Vector    7  Occ=0.000000D+00  E= 3.887939D+00

 Vector    8  Occ=0.000000D+00  E= 3.887939D+00

 Vector    9  Occ=0.000000D+00  E= 3.887939D+00

 Vector   10  Occ=0.000000D+00  E= 3.887939D+00

 Vector   11  Occ=0.000000D+00  E= 3.887939D+00

       Multipole analysis of the density wrt the origin
       ------------------------------------------------

     L   x y z        total         open         nuclear
     -   - - -        -----         ----         -------
     0   0 0 0     -0.000000      0.000000      2.000000

     1   1 0 0     -0.000000      0.000000      0.000000
     1   0 1 0     -0.000000      0.000000      0.000000
     1   0 0 1     -0.000000      0.000000      0.000000

     2   2 0 0     -0.789074      0.000000      0.000000
     2   1 1 0      0.000000      0.000000      0.000000
     2   1 0 1     -0.000000      0.000000      0.000000
     2   0 2 0     -0.789074      0.000000      0.000000
     2   0 1 1     -0.000000      0.000000      0.000000

          Total MP2 energy            -2.896992231557
         Total SCF energy =     -2.861514227228
         Total SCF energy =     -2.861514227228
          Total MP2 energy            -2.904082875804
         Total SCF energy =     -2.861514227228
          Total MP2 energy            -2.896992231557
         Total SCF energy =     -2.861514227228
         Total SCF energy =     -2.861514227228
          Total MP2 energy            -2.896988101042
         Total SCF energy =     -2.861514227228
          Total MP2 energy            -2.896992231557
         Total SCF energy =     -2.861514227228
         Total SCF energy =     -2.861514227228
          Total MP2 energy            -2.861514227228
         Total SCF energy =     -2.861514227228
          Total MP2 energy            -2.896992231557
         Total SCF energy =     -2.861514227228
         Total SCF energy =     -2.861514227228
          Total MP2 energy            -2.896988101042
         Total SCF energy =     -2.861514227228
          Total MP2 energy            -2.896992231557
         Total SCF energy =     -2.861514227228
         Total SCF energy =     -2.861514227228
          Total MP2 energy            -2.861514227228
         Total SCF energy =     -2.861514227228
          Total MP2 energy            -2.896992231557
         Total SCF energy =     -2.861514227228
         Total SCF energy =     -2.861514227228
          Total MP2 energy           -38.335388040983
 Total times  cpu:        1.7s     wall:        1.7s
