============================== echo of input deck ==============================
echo
start  h2o
title Water
geometry units au autosym
  O      0.00000000    0.00000000    0.00000000
  H      0.00000000    1.93042809   -1.10715266
  H      0.00000000   -1.93042809   -1.10715266
end
basis noprint
  H library sto-3g
  O library sto-3g
end
scf; thresh 1e-6; end
driver; tight; end
task scf optimize

scf; thresh 1e-8; print none; end
task scf freq

freq
  reuse; temperature 4 298.15 300.0 350.0 400.0
end
task scf freq

freq
 reuse; mass H 2.014101779
 temperature 1 298.15
end
task scf freq

freq
 reuse; mass 2 2.014101779
end
task scf freq

freq
 reuse; mass 2 2.014101779 ; mass 3 3.01604927
end
task scf freq
================================================================================

         Total SCF energy =    -74.888142460755

 Vector    2  Occ=2.000000D+00  E=-1.172709D+00  Symmetry=a1

 Vector    3  Occ=2.000000D+00  E=-5.295450D-01  Symmetry=b1

 Vector    4  Occ=2.000000D+00  E=-3.893881D-01  Symmetry=a1

 Vector    5  Occ=2.000000D+00  E=-3.744217D-01  Symmetry=b2

 Vector    6  Occ=0.000000D+00  E= 3.810926D-01  Symmetry=a1

 Vector    7  Occ=0.000000D+00  E= 5.605872D-01  Symmetry=b1

@ Step       Energy      Delta E   Gmax     Grms     Xrms     Xmax   Walltime
@ ---- ---------------- -------- -------- -------- -------- -------- --------
@    0     -74.88814246  0.0D+00  0.13607  0.11511  0.00000  0.00000      0.1
         Total SCF energy =    -74.958028518028

 Vector    2  Occ=2.000000D+00  E=-1.231947D+00  Symmetry=a1

 Vector    3  Occ=2.000000D+00  E=-5.954744D-01  Symmetry=b1

 Vector    4  Occ=2.000000D+00  E=-4.292352D-01  Symmetry=a1

 Vector    5  Occ=2.000000D+00  E=-3.825406D-01  Symmetry=b2

 Vector    6  Occ=0.000000D+00  E= 5.321632D-01  Symmetry=a1

 Vector    7  Occ=0.000000D+00  E= 6.920121D-01  Symmetry=b1

         Total SCF energy =    -74.942880971211

 Vector    2  Occ=2.000000D+00  E=-1.303499D+00  Symmetry=a1

 Vector    3  Occ=2.000000D+00  E=-6.511382D-01  Symmetry=b1

 Vector    4  Occ=2.000000D+00  E=-4.615104D-01  Symmetry=a1

 Vector    5  Occ=2.000000D+00  E=-3.970054D-01  Symmetry=b2

 Vector    6  Occ=0.000000D+00  E= 6.698409D-01  Symmetry=a1

 Vector    7  Occ=0.000000D+00  E= 8.178190D-01  Symmetry=b1

@    1     -74.94288097 -5.5D-02  0.14104  0.11517  0.28021  0.59275      0.2
         Total SCF energy =    -74.963874450824

 Vector    2  Occ=2.000000D+00  E=-1.249652D+00  Symmetry=a1

 Vector    3  Occ=2.000000D+00  E=-5.734841D-01  Symmetry=b1

 Vector    4  Occ=2.000000D+00  E=-4.661493D-01  Symmetry=a1

 Vector    5  Occ=2.000000D+00  E=-3.941310D-01  Symmetry=b2

 Vector    6  Occ=0.000000D+00  E= 5.632860D-01  Symmetry=a1

 Vector    7  Occ=0.000000D+00  E= 6.532929D-01  Symmetry=b1

         Total SCF energy =    -74.965620363373

 Vector    2  Occ=2.000000D+00  E=-1.262137D+00  Symmetry=a1

 Vector    3  Occ=2.000000D+00  E=-5.925395D-01  Symmetry=b1

 Vector    4  Occ=2.000000D+00  E=-4.651782D-01  Symmetry=a1

 Vector    5  Occ=2.000000D+00  E=-3.941836D-01  Symmetry=b2

 Vector    6  Occ=0.000000D+00  E= 5.893908D-01  Symmetry=a1

 Vector    7  Occ=0.000000D+00  E= 6.928486D-01  Symmetry=b1

@    2     -74.96562036 -2.3D-02  0.00729  0.00695  0.05769  0.12673      0.3
         Total SCF energy =    -74.965775694289

 Vector    2  Occ=2.000000D+00  E=-1.255918D+00  Symmetry=a1

 Vector    3  Occ=2.000000D+00  E=-5.969070D-01  Symmetry=b1

 Vector    4  Occ=2.000000D+00  E=-4.558422D-01  Symmetry=a1

 Vector    5  Occ=2.000000D+00  E=-3.914924D-01  Symmetry=b2

 Vector    6  Occ=0.000000D+00  E= 5.794993D-01  Symmetry=a1

 Vector    7  Occ=0.000000D+00  E= 6.975818D-01  Symmetry=b1

         Total SCF energy =    -74.965890117450

 Vector    2  Occ=2.000000D+00  E=-1.258389D+00  Symmetry=a1

 Vector    3  Occ=2.000000D+00  E=-5.952599D-01  Symmetry=b1

 Vector    4  Occ=2.000000D+00  E=-4.595623D-01  Symmetry=a1

 Vector    5  Occ=2.000000D+00  E=-3.925973D-01  Symmetry=b2

 Vector    6  Occ=0.000000D+00  E= 5.835693D-01  Symmetry=a1

 Vector    7  Occ=0.000000D+00  E= 6.956103D-01  Symmetry=b1

@    3     -74.96589012 -2.7D-04  0.00245  0.00201  0.01472  0.02749      0.4
         Total SCF energy =    -74.965900723827

 Vector    2  Occ=2.000000D+00  E=-1.257724D+00  Symmetry=a1

 Vector    3  Occ=2.000000D+00  E=-5.941428D-01  Symmetry=b1

 Vector    4  Occ=2.000000D+00  E=-4.596988D-01  Symmetry=a1

 Vector    5  Occ=2.000000D+00  E=-3.926138D-01  Symmetry=b2

 Vector    6  Occ=0.000000D+00  E= 5.821629D-01  Symmetry=a1

 Vector    7  Occ=0.000000D+00  E= 6.932766D-01  Symmetry=b1

         Total SCF energy =    -74.965901192220

 Vector    2  Occ=2.000000D+00  E=-1.257554D+00  Symmetry=a1

 Vector    3  Occ=2.000000D+00  E=-5.938567D-01  Symmetry=b1

 Vector    4  Occ=2.000000D+00  E=-4.597337D-01  Symmetry=a1

 Vector    5  Occ=2.000000D+00  E=-3.926182D-01  Symmetry=b2

 Vector    6  Occ=0.000000D+00  E= 5.818029D-01  Symmetry=a1

 Vector    7  Occ=0.000000D+00  E= 6.926795D-01  Symmetry=b1

@    4     -74.96590119 -1.1D-05  0.00001  0.00001  0.00146  0.00332      0.4
         Total SCF energy =    -74.965901192463

 Vector    2  Occ=2.000000D+00  E=-1.257549D+00  Symmetry=a1

 Vector    3  Occ=2.000000D+00  E=-5.938552D-01  Symmetry=b1

 Vector    4  Occ=2.000000D+00  E=-4.597301D-01  Symmetry=a1

 Vector    5  Occ=2.000000D+00  E=-3.926170D-01  Symmetry=b2

 Vector    6  Occ=0.000000D+00  E= 5.817942D-01  Symmetry=a1

 Vector    7  Occ=0.000000D+00  E= 6.926745D-01  Symmetry=b1

       Multipole analysis of the density wrt the origin
       ------------------------------------------------

     L   x y z        total         open         nuclear
     -   - - -        -----         ----         -------
     0   0 0 0     -0.000000      0.000000     10.000000

     1   1 0 0      0.000000      0.000000      0.000000
     1   0 1 0      0.000000      0.000000      0.000000
     1   0 0 1     -0.672454      0.000000      0.440252

     2   2 0 0     -3.334920      0.000000      4.104482
     2   1 1 0      0.000000      0.000000      0.000000
     2   1 0 1      0.000000      0.000000      0.000000
     2   0 2 0     -4.554279      0.000000      0.000000
     2   0 1 1     -0.000000      0.000000      0.000000

         Total SCF energy =    -74.965901192463
@    5     -74.96590119 -2.4D-10  0.00000  0.00000  0.00001  0.00002      0.5
@    5     -74.96590119 -2.4D-10  0.00000  0.00000  0.00001  0.00002      0.5

 Output coordinates in a.u. (scale by  1.000000000 to convert to a.u.)

  No.       Tag          Charge          X              Y              Z
 ---- ---------------- ---------- -------------- -------------- --------------
    1 O                    8.0000     0.00000000     0.00000000     0.28432369
    2 H                    1.0000    -1.43256442     0.00000000    -0.91716871
    3 H                    1.0000     1.43256442     0.00000000    -0.91716871

 Zero-Point correction to Energy  =   15.291 kcal/mol  (  0.024367 au)
 Thermal correction to Energy     =   17.068 kcal/mol  (  0.027199 au)
 Thermal correction to Enthalpy   =   17.660 kcal/mol  (  0.028143 au)
 Total Entropy                    =   45.261 cal/mol-K
   - Translational                =   34.593 cal/mol-K (mol. weight =  18.0106)
   - Rotational                   =   10.668 cal/mol-K (symmetry #  =        2)
   - Vibrational                  =    0.001 cal/mol-K
   - Translational                  =    2.979 cal/mol-K
   - Rotational                     =    2.979 cal/mol-K
   - Vibrational                    =    0.006 cal/mol-K
 P.Frequency        0.00        0.00        0.00        0.00        0.00        0.00
 P.Frequency     2170.05     4140.00     4391.07
 Zero-Point correction to Energy  =   15.291 kcal/mol  (  0.024367 au)
 Thermal correction to Energy     =   17.068 kcal/mol  (  0.027199 au)
 Thermal correction to Enthalpy   =   17.660 kcal/mol  (  0.028143 au)
 Total Entropy                    =   45.261 cal/mol-K
   - Translational                =   34.593 cal/mol-K (mol. weight =  18.0106)
   - Rotational                   =   10.668 cal/mol-K (symmetry #  =        2)
   - Vibrational                  =    0.001 cal/mol-K
   - Translational                  =    2.979 cal/mol-K
   - Rotational                     =    2.979 cal/mol-K
   - Vibrational                    =    0.006 cal/mol-K
 Zero-Point correction to Energy  =   15.291 kcal/mol  (  0.024367 au)
 Thermal correction to Energy     =   17.079 kcal/mol  (  0.027216 au)
 Thermal correction to Enthalpy   =   17.674 kcal/mol  (  0.028166 au)
 Total Entropy                    =   45.311 cal/mol-K
   - Translational                =   34.624 cal/mol-K (mol. weight =  18.0106)
   - Rotational                   =   10.686 cal/mol-K (symmetry #  =        2)
   - Vibrational                  =    0.001 cal/mol-K
   - Translational                  =    2.979 cal/mol-K
   - Rotational                     =    2.979 cal/mol-K
   - Vibrational                    =    0.007 cal/mol-K
 Zero-Point correction to Energy  =   15.291 kcal/mol  (  0.024367 au)
 Thermal correction to Energy     =   17.377 kcal/mol  (  0.027692 au)
 Thermal correction to Enthalpy   =   18.072 kcal/mol  (  0.028800 au)
 Total Entropy                    =   46.537 cal/mol-K
   - Translational                =   35.389 cal/mol-K (mol. weight =  18.0106)
   - Rotational                   =   11.146 cal/mol-K (symmetry #  =        2)
   - Vibrational                  =    0.003 cal/mol-K
   - Translational                  =    2.979 cal/mol-K
   - Rotational                     =    2.979 cal/mol-K
   - Vibrational                    =    0.021 cal/mol-K
 Zero-Point correction to Energy  =   15.291 kcal/mol  (  0.024367 au)
 Thermal correction to Energy     =   17.677 kcal/mol  (  0.028170 au)
 Thermal correction to Enthalpy   =   18.471 kcal/mol  (  0.029436 au)
 Total Entropy                    =   47.603 cal/mol-K
   - Translational                =   36.052 cal/mol-K (mol. weight =  18.0106)
   - Rotational                   =   11.544 cal/mol-K (symmetry #  =        2)
   - Vibrational                  =    0.007 cal/mol-K
   - Translational                  =    2.979 cal/mol-K
   - Rotational                     =    2.979 cal/mol-K
   - Vibrational                    =    0.050 cal/mol-K
 P.Frequency        0.00        0.00        0.00        0.00        0.00        0.00
 P.Frequency     2170.05     4140.00     4391.07
 Zero-Point correction to Energy  =   11.127 kcal/mol  (  0.017731 au)
 Thermal correction to Energy     =   12.905 kcal/mol  (  0.020566 au)
 Thermal correction to Enthalpy   =   13.498 kcal/mol  (  0.021510 au)
 Total Entropy                    =   45.269 cal/mol-K
   - Translational                =   34.593 cal/mol-K (mol. weight =  18.0106)
   - Rotational                   =   10.668 cal/mol-K (symmetry #  =        2)
   - Vibrational                  =    0.008 cal/mol-K
   - Translational                  =    2.979 cal/mol-K
   - Rotational                     =    2.979 cal/mol-K
   - Vibrational                    =    0.056 cal/mol-K
 P.Frequency       -0.00        0.00        0.00        0.00        0.00        0.00
 P.Frequency     1584.83     2990.84     3211.19
 Zero-Point correction to Energy  =   13.242 kcal/mol  (  0.021103 au)
 Thermal correction to Energy     =   15.019 kcal/mol  (  0.023935 au)
 Thermal correction to Enthalpy   =   15.611 kcal/mol  (  0.024878 au)
 Total Entropy                    =   45.263 cal/mol-K
   - Translational                =   34.593 cal/mol-K (mol. weight =  18.0106)
   - Rotational                   =   10.668 cal/mol-K (symmetry #  =        2)
   - Vibrational                  =    0.002 cal/mol-K
   - Translational                  =    2.979 cal/mol-K
   - Rotational                     =    2.979 cal/mol-K
   - Vibrational                    =    0.018 cal/mol-K
 P.Frequency        0.00        0.00        0.00        0.00        0.00        0.00
 P.Frequency     1900.87     3090.22     4276.28
 Zero-Point correction to Energy  =   10.239 kcal/mol  (  0.016317 au)
 Thermal correction to Energy     =   12.019 kcal/mol  (  0.019154 au)
 Thermal correction to Enthalpy   =   12.611 kcal/mol  (  0.020098 au)
 Total Entropy                    =   45.275 cal/mol-K
   - Translational                =   34.593 cal/mol-K (mol. weight =  18.0106)
   - Rotational                   =   10.668 cal/mol-K (symmetry #  =        2)
   - Vibrational                  =    0.014 cal/mol-K
   - Translational                  =    2.979 cal/mol-K
   - Rotational                     =    2.979 cal/mol-K
   - Vibrational                    =    0.086 cal/mol-K
 P.Frequency       -0.00        0.00        0.00        0.00        0.00        0.00
 P.Frequency     1463.33     2579.30     3123.05

 Normal Eigenvalue ||           Projected Infra Red Intensities
  Mode   [cm**-1]  || [atomic units] [(debye/angs)**2] [(KM/mol)] [arbitrary]
 ------ ---------- || -------------- ----------------- ---------- -----------
    1       -0.000 ||    0.005769           0.133         5.624       3.516
    2        0.000 ||    0.019584           0.452        19.091      11.935
    3        0.000 ||    0.038881           0.897        37.904      23.696
    4        0.000 ||    0.025965           0.599        25.312      15.824
    5        0.000 ||    0.022942           0.529        22.365      13.982
    6        0.000 ||    0.000000           0.000         0.000       0.000
    7     1463.328 ||    0.004791           0.111         4.671       2.920
    8     2579.305 ||    0.013455           0.310        13.117       8.200
    9     3123.045 ||    0.016289           0.376        15.879       9.927
 ----------------------------------------------------------------------------

 Total times  cpu:        0.5s     wall:        0.6s
