============================== echo of input deck ==============================
echo
title m08hx_ch3

start m08hx_ch3

geometry units angstroms
C 0.000000 0.000000 0.000000
H 0.000000 1.078000 0.000000
H 0.933000 -0.539000 0.000000
H -0.933000 -0.539000 0.000000
end

basis
 H library 6-31+G*
 C library 6-31+G*
end

dft
 mult 2
 iterations 50
 print intermediate energy info
 xc m08-hx
 decomp
 grid lebedev 99 14
 direct
end
task dft
================================================================================

 Output coordinates in angstroms (scale by  1.889725989 to convert to a.u.)

  No.       Tag          Charge          X              Y              Z
 ---- ---------------- ---------- -------------- -------------- --------------
    1 C                    6.0000     0.00000000     0.00000000     0.00000000
    2 H                    1.0000     0.76202621     0.76202621     0.00000000
    3 H                    1.0000     0.27892095    -1.04094716     0.00000000
    4 H                    1.0000    -1.04094716     0.27892095     0.00000000

         Total DFT energy =      -39.823989458612

                    DFT Final Alpha Molecular Orbital Analysis
                    ------------------------------------------

 Vector    1  Occ=1.000000D+00  E=-1.055422D+01  Symmetry=a1'

 Vector    2  Occ=1.000000D+00  E=-7.836876D-01  Symmetry=a1'

 Vector    3  Occ=1.000000D+00  E=-4.937605D-01  Symmetry=e'

 Vector    4  Occ=1.000000D+00  E=-4.937605D-01  Symmetry=e'

 Vector    5  Occ=1.000000D+00  E=-2.878328D-01  Symmetry=a2"

 Vector    6  Occ=0.000000D+00  E= 1.876581D-02  Symmetry=a1'

 Vector    7  Occ=0.000000D+00  E= 4.166903D-02  Symmetry=e'

 Vector    8  Occ=0.000000D+00  E= 4.166903D-02  Symmetry=e'

 Vector    9  Occ=0.000000D+00  E= 6.299159D-02  Symmetry=a2"

 Vector   10  Occ=0.000000D+00  E= 2.222160D-01  Symmetry=a1'

 Vector   11  Occ=0.000000D+00  E= 2.267004D-01  Symmetry=e'

 Vector   12  Occ=0.000000D+00  E= 2.267004D-01  Symmetry=e'

 Vector   13  Occ=0.000000D+00  E= 6.861357D-01  Symmetry=e'

 Vector   14  Occ=0.000000D+00  E= 6.861357D-01  Symmetry=e'

 Vector   15  Occ=0.000000D+00  E= 6.937214D-01  Symmetry=a2"

 Vector   16  Occ=0.000000D+00  E= 8.528140D-01  Symmetry=a1'

 Vector   17  Occ=0.000000D+00  E= 1.003641D+00  Symmetry=e'

 Vector   18  Occ=0.000000D+00  E= 1.003641D+00  Symmetry=e'

 Vector   19  Occ=0.000000D+00  E= 1.008270D+00  Symmetry=a1'

 Vector   20  Occ=0.000000D+00  E= 1.675155D+00  Symmetry=e"

 Vector   21  Occ=0.000000D+00  E= 1.675155D+00  Symmetry=e"

 Vector   22  Occ=0.000000D+00  E= 1.997472D+00  Symmetry=a1'

 Vector   23  Occ=0.000000D+00  E= 2.192892D+00  Symmetry=e'

 Vector   24  Occ=0.000000D+00  E= 2.192892D+00  Symmetry=e'

 Vector   25  Occ=0.000000D+00  E= 4.133371D+00  Symmetry=a1'

 Vector    1  Occ=1.000000D+00  E=-1.053572D+01  Symmetry=a1'

 Vector    2  Occ=1.000000D+00  E=-7.375156D-01  Symmetry=a1'

 Vector    3  Occ=1.000000D+00  E=-4.818725D-01  Symmetry=e'

 Vector    4  Occ=1.000000D+00  E=-4.818725D-01  Symmetry=e'

 Vector    5  Occ=0.000000D+00  E=-5.829289D-02  Symmetry=a2"

 Vector    6  Occ=0.000000D+00  E=-6.182697D-03  Symmetry=a1'

 Vector    7  Occ=0.000000D+00  E= 2.552035D-02  Symmetry=e'

 Vector    8  Occ=0.000000D+00  E= 2.552035D-02  Symmetry=e'

 Vector    9  Occ=0.000000D+00  E= 6.699017D-02  Symmetry=a2"

 Vector   10  Occ=0.000000D+00  E= 2.386828D-01  Symmetry=e'

 Vector   11  Occ=0.000000D+00  E= 2.386828D-01  Symmetry=e'

 Vector   12  Occ=0.000000D+00  E= 2.390537D-01  Symmetry=a1'

 Vector   13  Occ=0.000000D+00  E= 6.892309D-01  Symmetry=e'

 Vector   14  Occ=0.000000D+00  E= 6.892309D-01  Symmetry=e'

 Vector   15  Occ=0.000000D+00  E= 7.830555D-01  Symmetry=a2"

 Vector   16  Occ=0.000000D+00  E= 8.821441D-01  Symmetry=a1'

 Vector   17  Occ=0.000000D+00  E= 1.038600D+00  Symmetry=e'

 Vector   18  Occ=0.000000D+00  E= 1.038600D+00  Symmetry=e'

 Vector   19  Occ=0.000000D+00  E= 1.080690D+00  Symmetry=a1'

 Vector   20  Occ=0.000000D+00  E= 1.788631D+00  Symmetry=e"

 Vector   21  Occ=0.000000D+00  E= 1.788631D+00  Symmetry=e"

 Vector   22  Occ=0.000000D+00  E= 2.197642D+00  Symmetry=a1'

 Vector   23  Occ=0.000000D+00  E= 2.311348D+00  Symmetry=e'

 Vector   24  Occ=0.000000D+00  E= 2.311348D+00  Symmetry=e'

 Vector   25  Occ=0.000000D+00  E= 4.177179D+00  Symmetry=a1'

     Multipole analysis of the density
     ---------------------------------

     L   x y z        total         alpha         beta         nuclear
     -   - - -        -----         -----         ----         -------
     0   0 0 0     -0.000000     -5.000000     -4.000000      9.000000

     1   1 0 0     -0.000000     -0.000000     -0.000000      0.000000
     1   0 1 0     -0.000000     -0.000000     -0.000000      0.000000
     1   0 0 1     -0.000000     -0.000000      0.000000      0.000000

     2   2 0 0     -5.404002     -6.130573     -5.494408      6.220979
     2   1 1 0     -0.000000      0.000000      0.000000     -0.000000
     2   1 0 1      0.000000      0.000000      0.000000      0.000000
     2   0 2 0     -5.404002     -6.130573     -5.494408      6.220979
     2   0 1 1      0.000000      0.000000      0.000000      0.000000

 Total times  cpu:        0.6s     wall:        0.6s
