============================== echo of input deck ==============================
echo

title m08so_ch3
start m08so_ch3

geometry units angstroms
C 0.000000 0.000000 0.000000
H 0.000000 1.078000 0.000000
H 0.933000 -0.539000 0.000000
H -0.933000 -0.539000 0.000000
end

basis
 H library 6-31+G*
 C library 6-31+G*
end

dft
 mult 2
 iterations 50
 print intermediate energy info
 xc m08-so
 decomp
 grid lebedev 99 14
 direct
end
task dft
================================================================================

 Output coordinates in angstroms (scale by  1.889725989 to convert to a.u.)

  No.       Tag          Charge          X              Y              Z
 ---- ---------------- ---------- -------------- -------------- --------------
    1 C                    6.0000     0.00000000     0.00000000     0.00000000
    2 H                    1.0000     0.76202621     0.76202621     0.00000000
    3 H                    1.0000     0.27892095    -1.04094716     0.00000000
    4 H                    1.0000    -1.04094716     0.27892095     0.00000000

         Total DFT energy =      -39.803360009724

                    DFT Final Alpha Molecular Orbital Analysis
                    ------------------------------------------

 Vector    1  Occ=1.000000D+00  E=-1.053116D+01  Symmetry=a1'

 Vector    2  Occ=1.000000D+00  E=-7.774674D-01  Symmetry=a1'

 Vector    3  Occ=1.000000D+00  E=-4.941234D-01  Symmetry=e'

 Vector    4  Occ=1.000000D+00  E=-4.941234D-01  Symmetry=e'

 Vector    5  Occ=1.000000D+00  E=-2.947087D-01  Symmetry=a2"

 Vector    6  Occ=0.000000D+00  E= 2.581004D-02  Symmetry=a1'

 Vector    7  Occ=0.000000D+00  E= 4.377306D-02  Symmetry=e'

 Vector    8  Occ=0.000000D+00  E= 4.377306D-02  Symmetry=e'

 Vector    9  Occ=0.000000D+00  E= 6.974701D-02  Symmetry=a2"

 Vector   10  Occ=0.000000D+00  E= 2.250033D-01  Symmetry=a1'

 Vector   11  Occ=0.000000D+00  E= 2.286327D-01  Symmetry=e'

 Vector   12  Occ=0.000000D+00  E= 2.286327D-01  Symmetry=e'

 Vector   13  Occ=0.000000D+00  E= 6.686900D-01  Symmetry=e'

 Vector   14  Occ=0.000000D+00  E= 6.686900D-01  Symmetry=e'

 Vector   15  Occ=0.000000D+00  E= 6.821986D-01  Symmetry=a2"

 Vector   16  Occ=0.000000D+00  E= 8.413186D-01  Symmetry=a1'

 Vector   17  Occ=0.000000D+00  E= 9.972107D-01  Symmetry=e'

 Vector   18  Occ=0.000000D+00  E= 9.972107D-01  Symmetry=e'

 Vector   19  Occ=0.000000D+00  E= 1.015289D+00  Symmetry=a1'

 Vector   20  Occ=0.000000D+00  E= 1.650687D+00  Symmetry=e"

 Vector   21  Occ=0.000000D+00  E= 1.650687D+00  Symmetry=e"

 Vector   22  Occ=0.000000D+00  E= 2.011033D+00  Symmetry=a1'

 Vector   23  Occ=0.000000D+00  E= 2.230489D+00  Symmetry=e'

 Vector   24  Occ=0.000000D+00  E= 2.230489D+00  Symmetry=e'

 Vector   25  Occ=0.000000D+00  E= 4.072055D+00  Symmetry=a1'

 Vector    1  Occ=1.000000D+00  E=-1.051383D+01  Symmetry=a1'

 Vector    2  Occ=1.000000D+00  E=-7.429750D-01  Symmetry=a1'

 Vector    3  Occ=1.000000D+00  E=-4.875253D-01  Symmetry=e'

 Vector    4  Occ=1.000000D+00  E=-4.875253D-01  Symmetry=e'

 Vector    5  Occ=0.000000D+00  E=-4.609916D-02  Symmetry=a2"

 Vector    6  Occ=0.000000D+00  E= 6.577451D-03  Symmetry=a1'

 Vector    7  Occ=0.000000D+00  E= 3.008822D-02  Symmetry=e'

 Vector    8  Occ=0.000000D+00  E= 3.008822D-02  Symmetry=e'

 Vector    9  Occ=0.000000D+00  E= 7.587315D-02  Symmetry=a2"

 Vector   10  Occ=0.000000D+00  E= 2.356799D-01  Symmetry=a1'

 Vector   11  Occ=0.000000D+00  E= 2.373443D-01  Symmetry=e'

 Vector   12  Occ=0.000000D+00  E= 2.373443D-01  Symmetry=e'

 Vector   13  Occ=0.000000D+00  E= 6.819988D-01  Symmetry=e'

 Vector   14  Occ=0.000000D+00  E= 6.819988D-01  Symmetry=e'

 Vector   15  Occ=0.000000D+00  E= 7.825294D-01  Symmetry=a2"

 Vector   16  Occ=0.000000D+00  E= 8.697052D-01  Symmetry=a1'

 Vector   17  Occ=0.000000D+00  E= 1.007455D+00  Symmetry=e'

 Vector   18  Occ=0.000000D+00  E= 1.007455D+00  Symmetry=e'

 Vector   19  Occ=0.000000D+00  E= 1.042604D+00  Symmetry=a1'

 Vector   20  Occ=0.000000D+00  E= 1.777191D+00  Symmetry=e"

 Vector   21  Occ=0.000000D+00  E= 1.777191D+00  Symmetry=e"

 Vector   22  Occ=0.000000D+00  E= 2.152169D+00  Symmetry=a1'

 Vector   23  Occ=0.000000D+00  E= 2.232149D+00  Symmetry=e'

 Vector   24  Occ=0.000000D+00  E= 2.232149D+00  Symmetry=e'

 Vector   25  Occ=0.000000D+00  E= 4.184885D+00  Symmetry=a1'

     Multipole analysis of the density
     ---------------------------------

     L   x y z        total         alpha         beta         nuclear
     -   - - -        -----         -----         ----         -------
     0   0 0 0     -0.000000     -5.000000     -4.000000      9.000000

     1   1 0 0      0.000000     -0.000000      0.000000      0.000000
     1   0 1 0      0.000000     -0.000000      0.000000      0.000000
     1   0 0 1      0.000000      0.000000      0.000000      0.000000

     2   2 0 0     -5.428885     -6.164084     -5.485779      6.220979
     2   1 1 0     -0.000000      0.000000      0.000000     -0.000000
     2   1 0 1     -0.000000     -0.000000     -0.000000      0.000000
     2   0 2 0     -5.428885     -6.164084     -5.485779      6.220979
     2   0 1 1      0.000000      0.000000      0.000000      0.000000

 Total times  cpu:        0.6s     wall:        0.6s
