============================== echo of input deck ==============================
echo
start m08so_h2o
title m08so_h2o

geometry units angstroms
 O     0.000000     0.000000     0.000000
 H     0.000000     0.000000     0.956914
 H     0.926363     0.000000    -0.239868
end

basis
 H library 6-31+G*
 O library 6-31+G*
end

dft
 iterations 50
 print intermediate energy info
 xc m08-so
 decomp
 grid lebedev 99 14
 direct
end
task dft
================================================================================

 Output coordinates in angstroms (scale by  1.889725989 to convert to a.u.)

  No.       Tag          Charge          X              Y              Z
 ---- ---------------- ---------- -------------- -------------- --------------
    1 O                    8.0000     0.00000000     0.00000000    -0.11714535
    2 H                    1.0000    -0.75670925     0.00000000     0.46858141
    3 H                    1.0000     0.75670925     0.00000000     0.46858141

         Total DFT energy =      -76.371064145273

                       DFT Final Molecular Orbital Analysis
                       ------------------------------------

 Vector    1  Occ=2.000000D+00  E=-1.960943D+01  Symmetry=a1

 Vector    2  Occ=2.000000D+00  E=-1.135032D+00  Symmetry=a1

 Vector    3  Occ=2.000000D+00  E=-6.253133D-01  Symmetry=b1

 Vector    4  Occ=2.000000D+00  E=-4.837917D-01  Symmetry=a1

 Vector    5  Occ=2.000000D+00  E=-4.102314D-01  Symmetry=b2

 Vector    6  Occ=0.000000D+00  E= 5.049299D-02  Symmetry=a1

 Vector    7  Occ=0.000000D+00  E= 1.171382D-01  Symmetry=b1

 Vector    8  Occ=0.000000D+00  E= 1.541782D-01  Symmetry=a1

 Vector    9  Occ=0.000000D+00  E= 1.590567D-01  Symmetry=b2

 Vector   10  Occ=0.000000D+00  E= 2.312491D-01  Symmetry=b1

 Vector   11  Occ=0.000000D+00  E= 2.659397D-01  Symmetry=a1

 Vector   12  Occ=0.000000D+00  E= 1.010931D+00  Symmetry=b1

 Vector   13  Occ=0.000000D+00  E= 1.103960D+00  Symmetry=a1

 Vector   14  Occ=0.000000D+00  E= 1.138925D+00  Symmetry=b1

 Vector   15  Occ=0.000000D+00  E= 1.151100D+00  Symmetry=b2

 Vector   16  Occ=0.000000D+00  E= 1.175700D+00  Symmetry=a1

 Vector   17  Occ=0.000000D+00  E= 1.264500D+00  Symmetry=a1

 Vector   18  Occ=0.000000D+00  E= 1.769803D+00  Symmetry=a1

 Vector   19  Occ=0.000000D+00  E= 1.782838D+00  Symmetry=a2

 Vector   20  Occ=0.000000D+00  E= 1.821276D+00  Symmetry=b2

 Vector   21  Occ=0.000000D+00  E= 2.334886D+00  Symmetry=a1

 Vector   22  Occ=0.000000D+00  E= 2.704395D+00  Symmetry=b1

 Vector   23  Occ=0.000000D+00  E= 3.721175D+00  Symmetry=a1

     Multipole analysis of the density
     ---------------------------------

     L   x y z        total         alpha         beta         nuclear
     -   - - -        -----         -----         ----         -------
     0   0 0 0     -0.000000     -5.000000     -5.000000     10.000000

     1   1 0 0      0.000000      0.000000      0.000000      0.000000
     1   0 1 0      0.000000      0.000000      0.000000      0.000000
     1   0 0 1      0.918928      0.459464      0.459464      0.000000

     2   2 0 0     -3.262748     -3.676197     -3.676197      4.089646
     2   1 1 0      0.000000      0.000000      0.000000      0.000000
     2   1 0 1      0.000000      0.000000      0.000000      0.000000
     2   0 2 0     -5.876426     -2.938213     -2.938213      0.000000
     2   0 1 1      0.000000      0.000000      0.000000      0.000000

 Total times  cpu:        0.2s     wall:        0.3s
