============================== echo of input deck ==============================
echo
title m11-l_ch3
start m11-l_ch3

geometry units angstroms
C 0.000000 0.000000 0.000000
H 0.000000 1.078000 0.000000
H 0.933000 -0.539000 0.000000
H -0.933000 -0.539000 0.000000
end

basis
 H library 6-31+G*
 C library 6-31+G*
end

dft
 mult 2
 iterations 50
 print intermediate energy info
 xc m11-l
 decomp
 grid lebedev 99 14
 direct
end
task dft
================================================================================

 Output coordinates in angstroms (scale by  1.889725989 to convert to a.u.)

  No.       Tag          Charge          X              Y              Z
 ---- ---------------- ---------- -------------- -------------- --------------
    1 C                    6.0000     0.00000000     0.00000000     0.00000000
    2 H                    1.0000     0.76202621     0.76202621     0.00000000
    3 H                    1.0000     0.27892095    -1.04094716     0.00000000
    4 H                    1.0000    -1.04094716     0.27892095     0.00000000

         Total DFT energy =      -39.822314418490

                    DFT Final Alpha Molecular Orbital Analysis
                    ------------------------------------------

 Vector    1  Occ=1.000000D+00  E=-1.036271D+01  Symmetry=a1'

 Vector    2  Occ=1.000000D+00  E=-6.769002D-01  Symmetry=a1'

 Vector    3  Occ=1.000000D+00  E=-4.013799D-01  Symmetry=e'

 Vector    4  Occ=1.000000D+00  E=-4.013799D-01  Symmetry=e'

 Vector    5  Occ=1.000000D+00  E=-1.974375D-01  Symmetry=a2"

 Vector    6  Occ=0.000000D+00  E=-2.214027D-02  Symmetry=a1'

 Vector    7  Occ=0.000000D+00  E=-5.552661D-03  Symmetry=e'

 Vector    8  Occ=0.000000D+00  E=-5.552661D-03  Symmetry=e'

 Vector    9  Occ=0.000000D+00  E= 3.166100D-02  Symmetry=a2"

 Vector   10  Occ=0.000000D+00  E= 1.433491D-01  Symmetry=a1'

 Vector   11  Occ=0.000000D+00  E= 1.571149D-01  Symmetry=e'

 Vector   12  Occ=0.000000D+00  E= 1.571149D-01  Symmetry=e'

 Vector   13  Occ=0.000000D+00  E= 6.196745D-01  Symmetry=e'

 Vector   14  Occ=0.000000D+00  E= 6.196745D-01  Symmetry=e'

 Vector   15  Occ=0.000000D+00  E= 6.228690D-01  Symmetry=a2"

 Vector   16  Occ=0.000000D+00  E= 7.773018D-01  Symmetry=a1'

 Vector   17  Occ=0.000000D+00  E= 9.240040D-01  Symmetry=a1'

 Vector   18  Occ=0.000000D+00  E= 9.364057D-01  Symmetry=e'

 Vector   19  Occ=0.000000D+00  E= 9.364057D-01  Symmetry=e'

 Vector   20  Occ=0.000000D+00  E= 1.566656D+00  Symmetry=e"

 Vector   21  Occ=0.000000D+00  E= 1.566656D+00  Symmetry=e"

 Vector   22  Occ=0.000000D+00  E= 1.942703D+00  Symmetry=a1'

 Vector   23  Occ=0.000000D+00  E= 2.167768D+00  Symmetry=e'

 Vector   24  Occ=0.000000D+00  E= 2.167768D+00  Symmetry=e'

 Vector   25  Occ=0.000000D+00  E= 4.161221D+00  Symmetry=a1'

 Vector    1  Occ=1.000000D+00  E=-1.034677D+01  Symmetry=a1'

 Vector    2  Occ=1.000000D+00  E=-6.173183D-01  Symmetry=a1'

 Vector    3  Occ=1.000000D+00  E=-3.803868D-01  Symmetry=e'

 Vector    4  Occ=1.000000D+00  E=-3.803868D-01  Symmetry=e'

 Vector    5  Occ=0.000000D+00  E=-9.675625D-02  Symmetry=a2"

 Vector    6  Occ=0.000000D+00  E=-3.750373D-02  Symmetry=a1'

 Vector    7  Occ=0.000000D+00  E=-1.912637D-02  Symmetry=e'

 Vector    8  Occ=0.000000D+00  E=-1.912637D-02  Symmetry=e'

 Vector    9  Occ=0.000000D+00  E= 9.946234D-03  Symmetry=a2"

 Vector   10  Occ=0.000000D+00  E= 1.395044D-01  Symmetry=a1'

 Vector   11  Occ=0.000000D+00  E= 1.404512D-01  Symmetry=e'

 Vector   12  Occ=0.000000D+00  E= 1.404512D-01  Symmetry=e'

 Vector   13  Occ=0.000000D+00  E= 5.993980D-01  Symmetry=e'

 Vector   14  Occ=0.000000D+00  E= 5.993980D-01  Symmetry=e'

 Vector   15  Occ=0.000000D+00  E= 7.468305D-01  Symmetry=a2"

 Vector   16  Occ=0.000000D+00  E= 7.873668D-01  Symmetry=a1'

 Vector   17  Occ=0.000000D+00  E= 8.535020D-01  Symmetry=e'

 Vector   18  Occ=0.000000D+00  E= 8.535020D-01  Symmetry=e'

 Vector   19  Occ=0.000000D+00  E= 8.846312D-01  Symmetry=a1'

 Vector   20  Occ=0.000000D+00  E= 1.609576D+00  Symmetry=e"

 Vector   21  Occ=0.000000D+00  E= 1.609576D+00  Symmetry=e"

 Vector   22  Occ=0.000000D+00  E= 2.059001D+00  Symmetry=e'

 Vector   23  Occ=0.000000D+00  E= 2.059001D+00  Symmetry=e'

 Vector   24  Occ=0.000000D+00  E= 2.109328D+00  Symmetry=a1'

 Vector   25  Occ=0.000000D+00  E= 4.148176D+00  Symmetry=a1'

     Multipole analysis of the density
     ---------------------------------

     L   x y z        total         alpha         beta         nuclear
     -   - - -        -----         -----         ----         -------
     0   0 0 0     -0.000000     -5.000000     -4.000000      9.000000

     1   1 0 0     -0.000000     -0.000000     -0.000000      0.000000
     1   0 1 0     -0.000000     -0.000000      0.000000      0.000000
     1   0 0 1     -0.000000     -0.000000     -0.000000      0.000000

     2   2 0 0     -5.365376     -6.081752     -5.504603      6.220979
     2   1 1 0      0.000000      0.000000      0.000000     -0.000000
     2   1 0 1     -0.000000     -0.000000      0.000000      0.000000
     2   0 2 0     -5.365376     -6.081752     -5.504603      6.220979
     2   0 1 1      0.000000      0.000000     -0.000000      0.000000

 Total times  cpu:        0.5s     wall:        0.5s
