============================== echo of input deck ==============================
TITLE "mep test"

echo
start meptest2

GEOMETRY   noautosym
 C                    -0.63041882    -0.10565750     0.00000000
 N                     0.56689462    -0.05377250     0.00000000
 H                    -0.23798723     1.04344672     0.00000000
end

basis
* library DZVP_(DFT_Orbital)
end

task dft freq

freq
reuse meptest2.hess
end

mepgs
maxmep 30
maxiter 20
inhess 2
xyz
evib 0.0005
stride 0.1
print low
backward
end

task dft mepgs
================================================================================

         Total DFT energy =      -92.553385129861

                       DFT Final Molecular Orbital Analysis
                       ------------------------------------

 Vector    1  Occ=2.000000D+00  E=-1.394685D+01

 Vector    2  Occ=2.000000D+00  E=-9.873680D+00

 Vector    3  Occ=2.000000D+00  E=-9.118413D-01

 Vector    4  Occ=2.000000D+00  E=-4.828937D-01

 Vector    5  Occ=2.000000D+00  E=-4.103846D-01

 Vector    6  Occ=2.000000D+00  E=-3.574263D-01

 Vector    7  Occ=2.000000D+00  E=-2.980199D-01

 Vector    8  Occ=0.000000D+00  E=-1.066205D-01

 Vector    9  Occ=0.000000D+00  E=-4.907696D-02

 Vector   10  Occ=0.000000D+00  E= 1.538110D-02

 Vector   11  Occ=0.000000D+00  E= 1.717907D-01

 Vector   12  Occ=0.000000D+00  E= 2.353131D-01

 Vector   13  Occ=0.000000D+00  E= 2.539959D-01

 Vector   14  Occ=0.000000D+00  E= 3.426987D-01

 Vector   15  Occ=0.000000D+00  E= 4.400353D-01

 Vector   16  Occ=0.000000D+00  E= 4.750506D-01

 Vector   17  Occ=0.000000D+00  E= 5.032118D-01

 Vector   18  Occ=0.000000D+00  E= 5.597777D-01

 Vector   19  Occ=0.000000D+00  E= 6.972663D-01

 Vector   20  Occ=0.000000D+00  E= 1.022569D+00

 Vector   21  Occ=0.000000D+00  E= 1.058035D+00

 Vector   22  Occ=0.000000D+00  E= 1.157205D+00

 Vector   23  Occ=0.000000D+00  E= 1.205356D+00

 Vector   24  Occ=0.000000D+00  E= 1.528687D+00

 Vector   25  Occ=0.000000D+00  E= 1.531094D+00

 Vector   26  Occ=0.000000D+00  E= 1.539838D+00

 Vector   27  Occ=0.000000D+00  E= 1.816591D+00

 Vector   28  Occ=0.000000D+00  E= 2.032794D+00

 Vector   29  Occ=0.000000D+00  E= 2.061952D+00

 Vector   30  Occ=0.000000D+00  E= 2.223223D+00

 Vector   31  Occ=0.000000D+00  E= 2.677694D+00

 Vector   32  Occ=0.000000D+00  E= 3.279379D+00

     Multipole analysis of the density
     ---------------------------------

     L   x y z        total         alpha         beta         nuclear
     -   - - -        -----         -----         ----         -------
     0   0 0 0     -0.000000     -7.000000     -7.000000     14.000000

     1   1 0 0     -0.044494     -0.022247     -0.022247     -0.000000
     1   0 1 0      0.532315      0.266157      0.266157     -0.000000
     1   0 0 1     -0.000000     -0.000000     -0.000000      0.000000

     2   2 0 0    -10.820527    -13.785475    -13.785475     16.750423
     2   1 1 0     -0.278653     -0.028738     -0.028738     -0.221178
     2   1 0 1     -0.000000     -0.000000     -0.000000      0.000000
     2   0 2 0     -7.186339     -5.692820     -5.692820      4.199301
     2   0 1 1      0.000000      0.000000      0.000000      0.000000

 Zero-Point correction to Energy  =    6.542 kcal/mol  (  0.010425 au)
 Thermal correction to Energy     =    8.319 kcal/mol  (  0.013257 au)
 Thermal correction to Enthalpy   =    8.911 kcal/mol  (  0.014200 au)
 Total Entropy                    =   52.162 cal/mol-K
   - Translational                =   35.800 cal/mol-K (mol. weight =  27.0109)
   - Rotational                   =   16.361 cal/mol-K (symmetry #  =        1)
   - Vibrational                  =    0.001 cal/mol-K
   - Translational                  =    2.979 cal/mol-K
   - Rotational                     =    2.979 cal/mol-K
   - Vibrational                    =    0.012 cal/mol-K
 P.Frequency    -1066.00       -0.00       -0.00        0.00        0.00        0.00
 P.Frequency        0.00     2018.78     2559.30
         Total DFT energy =      -92.553385151791

 Normal Eigenvalue ||           Projected Infra Red Intensities
  Mode   [cm**-1]  || [atomic units] [(debye/angs)**2] [(KM/mol)] [arbitrary]
 ------ ---------- || -------------- ----------------- ---------- -----------
    1       -0.043 ||    0.114750           2.647       111.864      17.742
    2       -0.000 ||    0.038257           0.883        37.295       5.915
    3       -0.000 ||    0.004851           0.112         4.729       0.750
    4        0.000 ||    0.021970           0.507        21.417       3.397
    5        0.000 ||    0.010307           0.238        10.048       1.594
    6        0.000 ||    0.062373           1.439        60.804       9.644
    7        0.000 ||    0.027110           0.625        26.428       4.192
    8        0.154 ||    0.136587           3.151       133.152      21.119
    9        0.248 ||    0.165879           3.827       161.707      25.648
 ----------------------------------------------------------------------------

         Total DFT energy =      -92.553894967413
         Total DFT energy =      -92.555420141293
@ Step       Energy      Delta E   Gmax     Grms     Xrms     Xmax   Walltime
@ ---- ---------------- -------- -------- -------- -------- -------- --------
@    0     -92.55542014  0.0D+00  0.01369  0.00706  0.00000  0.00000      3.8
         Total DFT energy =      -92.555555331732
@    1     -92.55555533 -1.4D-04  0.00064  0.00029  0.00507  0.01058      4.3
         Total DFT energy =      -92.555555729135
@    2     -92.55555573 -4.0D-07  0.00007  0.00003  0.00033  0.00074      4.7
@    2     -92.55555573 -4.0D-07  0.00007  0.00003  0.00033  0.00074      4.7
         Total DFT energy =      -92.558242363227
@ Step       Energy      Delta E   Gmax     Grms     Xrms     Xmax   Walltime
@ ---- ---------------- -------- -------- -------- -------- -------- --------
@    0     -92.55824236  0.0D+00  0.01340  0.00618  0.00000  0.00000      5.3
         Total DFT energy =      -92.558307623099
@    1     -92.55830762 -6.5D-05  0.00043  0.00024  0.00237  0.00500      5.8
         Total DFT energy =      -92.558307795680
@    2     -92.55830780 -1.7D-07  0.00006  0.00003  0.00020  0.00042      6.2
@    2     -92.55830780 -1.7D-07  0.00006  0.00003  0.00020  0.00042      6.2
         Total DFT energy =      -92.561990361845
@ Step       Energy      Delta E   Gmax     Grms     Xrms     Xmax   Walltime
@ ---- ---------------- -------- -------- -------- -------- -------- --------
@    0     -92.56199036  0.0D+00  0.00365  0.00171  0.00000  0.00000      6.8
         Total DFT energy =      -92.561994963860
@    1     -92.56199496 -4.6D-06  0.00016  0.00010  0.00062  0.00130      7.2
@    1     -92.56199496 -4.6D-06  0.00016  0.00010  0.00062  0.00130      7.2
         Total DFT energy =      -92.566410009946
@ Step       Energy      Delta E   Gmax     Grms     Xrms     Xmax   Walltime
@ ---- ---------------- -------- -------- -------- -------- -------- --------
@    0     -92.56641001  0.0D+00  0.00549  0.00262  0.00000  0.00000      7.7
         Total DFT energy =      -92.566419799161
@    1     -92.56641980 -9.8D-06  0.00058  0.00034  0.00095  0.00191      8.3
         Total DFT energy =      -92.566420047840
@    2     -92.56642005 -2.5D-07  0.00007  0.00003  0.00019  0.00038      8.7
@    2     -92.56642005 -2.5D-07  0.00007  0.00003  0.00019  0.00038      8.7
         Total DFT energy =      -92.571390599716
@ Step       Energy      Delta E   Gmax     Grms     Xrms     Xmax   Walltime
@ ---- ---------------- -------- -------- -------- -------- -------- --------
@    0     -92.57139060  0.0D+00  0.00199  0.00095  0.00000  0.00000      9.2
         Total DFT energy =      -92.571391832817
@    1     -92.57139183 -1.2D-06  0.00025  0.00015  0.00033  0.00068      9.7
@    1     -92.57139183 -1.2D-06  0.00025  0.00015  0.00033  0.00068      9.7
         Total DFT energy =      -92.576725186984
@ Step       Energy      Delta E   Gmax     Grms     Xrms     Xmax   Walltime
@ ---- ---------------- -------- -------- -------- -------- -------- --------
@    0     -92.57672519  0.0D+00  0.00416  0.00201  0.00000  0.00000     10.2
         Total DFT energy =      -92.576730444258
@    1     -92.57673044 -5.3D-06  0.00065  0.00037  0.00069  0.00140     10.7
         Total DFT energy =      -92.576730686270
@    2     -92.57673069 -2.4D-07  0.00009  0.00004  0.00018  0.00036     11.1
@    2     -92.57673069 -2.4D-07  0.00009  0.00004  0.00018  0.00036     11.1
         Total DFT energy =      -92.582276997602
@ Step       Energy      Delta E   Gmax     Grms     Xrms     Xmax   Walltime
@ ---- ---------------- -------- -------- -------- -------- -------- --------
@    0     -92.58227700  0.0D+00  0.00279  0.00135  0.00000  0.00000     11.7
         Total DFT energy =      -92.582279565223
@    1     -92.58227957 -2.6D-06  0.00036  0.00020  0.00046  0.00094     12.2
@    1     -92.58227957 -2.6D-06  0.00036  0.00020  0.00046  0.00094     12.2
         Total DFT energy =      -92.587893778480
@ Step       Energy      Delta E   Gmax     Grms     Xrms     Xmax   Walltime
@ ---- ---------------- -------- -------- -------- -------- -------- --------
@    0     -92.58789378  0.0D+00  0.00418  0.00203  0.00000  0.00000     12.7
         Total DFT energy =      -92.587896930217
@    1     -92.58789693 -3.2D-06  0.00284  0.00137  0.00021  0.00043     13.2
         Total DFT energy =      -92.587899596412
@    2     -92.58789960 -2.7D-06  0.00002  0.00001  0.00044  0.00090     13.7
@    2     -92.58789960 -2.7D-06  0.00002  0.00001  0.00044  0.00090     13.7
         Total DFT energy =      -92.593466799200
@ Step       Energy      Delta E   Gmax     Grms     Xrms     Xmax   Walltime
@ ---- ---------------- -------- -------- -------- -------- -------- --------
@    0     -92.59346680  0.0D+00  0.00299  0.00149  0.00000  0.00000     14.2
         Total DFT energy =      -92.593467516380
@    1     -92.59346752 -7.2D-07  0.00297  0.00148  0.00029  0.00063     14.6
         Total DFT energy =      -92.593468156865
@    2     -92.59346816 -6.4D-07  0.00263  0.00131  0.00005  0.00011     15.0
         Total DFT energy =      -92.593470439377
@    3     -92.59347044 -2.3D-06  0.00006  0.00004  0.00040  0.00082     15.5
@    3     -92.59347044 -2.3D-06  0.00006  0.00004  0.00040  0.00082     15.5
         Total DFT energy =      -92.598878834983
@ Step       Energy      Delta E   Gmax     Grms     Xrms     Xmax   Walltime
@ ---- ---------------- -------- -------- -------- -------- -------- --------
@    0     -92.59887883  0.0D+00  0.00371  0.00184  0.00000  0.00000     16.0
         Total DFT energy =      -92.593336998369
@    1     -92.59333700  5.5D-03  0.04216  0.02242  0.02320  0.04062     16.5
         Total DFT energy =      -92.598884158562
@    2     -92.59888416 -5.5D-03  0.00057  0.00032  0.02279  0.04037     17.1
         Total DFT energy =      -92.598884413642
@    3     -92.59888441 -2.6D-07  0.00009  0.00004  0.00021  0.00037     17.5
@    3     -92.59888441 -2.6D-07  0.00009  0.00004  0.00021  0.00037     17.5
         Total DFT energy =      -92.604039904392
@ Step       Energy      Delta E   Gmax     Grms     Xrms     Xmax   Walltime
@ ---- ---------------- -------- -------- -------- -------- -------- --------
@    0     -92.60403990  0.0D+00  0.00338  0.00171  0.00000  0.00000     18.1
         Total DFT energy =      -92.604041986602
@    1     -92.60404199 -2.1D-06  0.00305  0.00154  0.00038  0.00083     18.5
         Total DFT energy =      -92.604045020282
@    2     -92.60404502 -3.0D-06  0.00092  0.00049  0.00037  0.00072     19.0
         Total DFT energy =      -92.604045330345
@ Step       Energy      Delta E   Gmax     Grms     Xrms     Xmax   Walltime
@ ---- ---------------- -------- -------- -------- -------- -------- --------
@    0     -92.61325984  0.0D+00  0.00364  0.00187  0.00000  0.00000     21.9
         Total DFT energy =      -92.613264497506
@    1     -92.61326450 -4.7D-06  0.00262  0.00135  0.00052  0.00110     22.4
         Total DFT energy =      -92.613266744651
@    2     -92.61326674 -2.2D-06  0.00120  0.00070  0.00065  0.00128     22.8
         Total DFT energy =      -92.613267382136
@    3     -92.61326738 -6.4D-07  0.00003  0.00002  0.00021  0.00035     23.3
@    3     -92.61326738 -6.4D-07  0.00003  0.00002  0.00021  0.00035     23.3
         Total DFT energy =      -92.617168155675
@ Step       Energy      Delta E   Gmax     Grms     Xrms     Xmax   Walltime
@ ---- ---------------- -------- -------- -------- -------- -------- --------
@    0     -92.61716816  0.0D+00  0.00356  0.00186  0.00000  0.00000     23.8
         Total DFT energy =      -92.617173704771
@    1     -92.61717370 -5.5D-06  0.00243  0.00127  0.00060  0.00126     24.3
         Total DFT energy =      -92.617175532657
@    2     -92.61717553 -1.8D-06  0.00139  0.00083  0.00069  0.00133     24.8
         Total DFT energy =      -92.617176452477
@    3     -92.61717645 -9.2D-07  0.00006  0.00003  0.00026  0.00046     25.2
@    3     -92.61717645 -9.2D-07  0.00006  0.00003  0.00026  0.00046     25.2
         Total DFT energy =      -92.620517583121
@ Step       Energy      Delta E   Gmax     Grms     Xrms     Xmax   Walltime
@ ---- ---------------- -------- -------- -------- -------- -------- --------
@    0     -92.62051758  0.0D+00  0.00356  0.00188  0.00000  0.00000     25.7
         Total DFT energy =      -92.620524172008
@    1     -92.62052417 -6.6D-06  0.00228  0.00121  0.00068  0.00139     26.2
         Total DFT energy =      -92.620525823410
@    2     -92.62052582 -1.7D-06  0.00151  0.00090  0.00072  0.00136     26.7
         Total DFT energy =      -92.620526957295
@    3     -92.62052696 -1.1D-06  0.00012  0.00006  0.00031  0.00060     27.2
@    3     -92.62052696 -1.1D-06  0.00012  0.00006  0.00031  0.00060     27.2
         Total DFT energy =      -92.623248694747
@ Step       Energy      Delta E   Gmax     Grms     Xrms     Xmax   Walltime
@ ---- ---------------- -------- -------- -------- -------- -------- --------
@    0     -92.62324869  0.0D+00  0.00330  0.00179  0.00000  0.00000     27.7
         Total DFT energy =      -92.623255964695
@    1     -92.62325596 -7.3D-06  0.00217  0.00119  0.00081  0.00168     28.2
         Total DFT energy =      -92.623256932572
@    2     -92.62325693 -9.7D-07  0.00191  0.00115  0.00085  0.00156     28.6
         Total DFT energy =      -92.623258821830
@    3     -92.62325882 -1.9D-06  0.00008  0.00004  0.00038  0.00068     29.1
@    3     -92.62325882 -1.9D-06  0.00008  0.00004  0.00038  0.00068     29.1
         Total DFT energy =      -92.625307786071
@ Step       Energy      Delta E   Gmax     Grms     Xrms     Xmax   Walltime
@ ---- ---------------- -------- -------- -------- -------- -------- --------
@    0     -92.62530779  0.0D+00  0.00333  0.00183  0.00000  0.00000     29.6
         Total DFT energy =      -92.625316207252
@    1     -92.62531621 -8.4D-06  0.00187  0.00104  0.00083  0.00163     30.1
         Total DFT energy =      -92.625318434805
@    2     -92.62531843 -2.2D-06  0.00120  0.00066  0.00075  0.00132     30.6
         Total DFT energy =      -92.625318974851
@    3     -92.62531897 -5.4D-07  0.00043  0.00023  0.00040  0.00076     31.0
@    3     -92.62531897 -5.4D-07  0.00043  0.00023  0.00040  0.00076     31.0
         Total DFT energy =      -92.626650510638
@ Step       Energy      Delta E   Gmax     Grms     Xrms     Xmax   Walltime
@ ---- ---------------- -------- -------- -------- -------- -------- --------
@    0     -92.62665051  0.0D+00  0.00310  0.00165  0.00000  0.00000     31.5
         Total DFT energy =      -92.626643965998
@    1     -92.62664397  6.5D-06  0.00618  0.00355  0.00285  0.00524     32.0
         Total DFT energy =      -92.626663385259
@    2     -92.62666339 -1.9D-05  0.00091  0.00053  0.00136  0.00245     32.5
         Total DFT energy =      -92.626664105265
@    3     -92.62666411 -7.2D-07  0.00026  0.00015  0.00027  0.00046     32.9
@    3     -92.62666411 -7.2D-07  0.00026  0.00015  0.00027  0.00046     32.9
         Total DFT energy =      -92.627261120202
@ Step       Energy      Delta E   Gmax     Grms     Xrms     Xmax   Walltime
@ ---- ---------------- -------- -------- -------- -------- -------- --------
@    0     -92.62726112  0.0D+00  0.00185  0.00104  0.00000  0.00000     33.4
         Total DFT energy =      -92.627263103371
@    1     -92.62726310 -2.0D-06  0.00107  0.00059  0.00053  0.00092     33.9
         Total DFT energy =      -92.627264098203
@    2     -92.62726410 -9.9D-07  0.00058  0.00032  0.00129  0.00246     34.3
         Total DFT energy =      -92.627264816559
@    3     -92.62726482 -7.2D-07  0.00000  0.00000  0.00052  0.00097     34.8
@    3     -92.62726482 -7.2D-07  0.00000  0.00000  0.00052  0.00097     34.8
         Total DFT energy =      -92.627089898825
         Total DFT energy =      -92.627278554429
@ Step       Energy      Delta E   Gmax     Grms     Xrms     Xmax   Walltime
@ ---- ---------------- -------- -------- -------- -------- -------- --------
@    0     -92.62727855  0.0D+00  0.00114  0.00062  0.00000  0.00000     35.8
         Total DFT energy =      -92.627279353029
@    1     -92.62727935 -8.0D-07  0.00073  0.00040  0.00037  0.00068     36.3
         Total DFT energy =      -92.627278954939
@    2     -92.62727895  4.0D-07  0.00063  0.00039  0.00131  0.00240     36.8
         Total DFT energy =      -92.627280150655
@    3     -92.62728015 -1.2D-06  0.00000  0.00000  0.00075  0.00133     37.3
@    3     -92.62728015 -1.2D-06  0.00000  0.00000  0.00075  0.00133     37.3
         Total DFT energy =      -92.627296105255
@ Step       Energy      Delta E   Gmax     Grms     Xrms     Xmax   Walltime
@ ---- ---------------- -------- -------- -------- -------- -------- --------
@    0     -92.62729611  0.0D+00  0.00041  0.00022  0.00000  0.00000     37.7
@ Step       Energy      Delta E   Gmax     Grms     Xrms     Xmax   Walltime
@ ---- ---------------- -------- -------- -------- -------- -------- --------
@    0     -92.62729611  0.0D+00  0.00041  0.00022  0.00000  0.00000     37.7
         Total DFT energy =      -92.626768518921
         Total DFT energy =      -92.627170834711
         Total DFT energy =      -92.627267304777
         Total DFT energy =      -92.627290058648
         Total DFT energy =      -92.627294165626

 Output coordinates in angstroms (scale by  1.889725989 to convert to a.u.)

  No.       Tag          Charge          X              Y              Z
 ---- ---------------- ---------- -------------- -------------- --------------
    1 C                    6.0000    -0.13729273     0.31430363     0.00000000
    2 N                    7.0000     0.61510804    -0.57546687     0.00000000
    3 H                    1.0000    -0.83600142     1.14674139    -0.00000000

 Total times  cpu:       39.5s     wall:       40.3s
