============================== echo of input deck ==============================
start test_n2+_dat
echo
title "N2+ 1.0977A B3LYP/6-31G** open-shell test"
charge 1
geometry
symmetry d2h
N 0.0 0.0 -0.54885
N 0.0 0.0 0.54885
end
basis
N library 6-31G**
end
dft
  xc xcamb88 1.00 lyp 0.81 vwn_5 0.19 hfexch 1.00
  cam 0.33 cam_alpha 0.19 cam_beta 0.81
  direct
  mult 2
  rodft
  cgmin
end
task dft
================================================================================

 Output coordinates in angstroms (scale by  1.889725989 to convert to a.u.)

  No.       Tag          Charge          X              Y              Z
 ---- ---------------- ---------- -------------- -------------- --------------
    1 N                    7.0000     0.00000000     0.00000000    -0.54885000
    2 N                    7.0000     0.00000000     0.00000000     0.54885000

         Total DFT energy =     -108.808481239512

                       DFT Final Molecular Orbital Analysis
                       ------------------------------------

 Vector    2  Occ=2.000000D+00  E=-1.507666D+01  Symmetry=b1u

 Vector    3  Occ=2.000000D+00  E=-1.716575D+00  Symmetry=ag

 Vector    4  Occ=2.000000D+00  E=-1.090498D+00  Symmetry=b1u

 Vector    5  Occ=2.000000D+00  E=-1.009459D+00  Symmetry=b3u

 Vector    6  Occ=2.000000D+00  E=-1.009459D+00  Symmetry=b2u

 Vector    7  Occ=1.000000D+00  E=-8.332482D-01  Symmetry=ag

 Vector    8  Occ=0.000000D+00  E=-3.267084D-01  Symmetry=b2g

 Vector    9  Occ=0.000000D+00  E=-3.267084D-01  Symmetry=b3g

 Vector   10  Occ=0.000000D+00  E= 1.808059D-01  Symmetry=b1u

 Vector   11  Occ=0.000000D+00  E= 3.444777D-01  Symmetry=ag

 Vector   12  Occ=0.000000D+00  E= 3.544765D-01  Symmetry=b3u

 Vector   13  Occ=0.000000D+00  E= 3.544765D-01  Symmetry=b2u

 Vector   14  Occ=0.000000D+00  E= 3.922715D-01  Symmetry=ag

 Vector   15  Occ=0.000000D+00  E= 5.006139D-01  Symmetry=b1u

 Vector   16  Occ=0.000000D+00  E= 5.054233D-01  Symmetry=b2g

 Vector   17  Occ=0.000000D+00  E= 5.054233D-01  Symmetry=b3g

 Total times  cpu:        0.7s     wall:        2.4s
