============================== echo of input deck ==============================
echo

start Ne_scs-mp2_cc-vqz

memory total 1000 mb

geometry
 Ne     0.0 0.0 0.0
end

basis "ao basis" spherical
  * library cc-pvqz
end

basis "cc-pVQZ-RI" spherical
#BASIS SET: (8s,7p,6d,5f,3g,1h)
Ne    S
    537.49100000             1.0000000
Ne    S
    116.22800000             1.0000000
Ne    S
     34.986200000            1.0000000
Ne    S
      8.0017500000           1.0000000
Ne    S
      4.4437800000           1.0000000
Ne    S
      2.4229600000           1.0000000
Ne    S
      1.1501200000           1.0000000
Ne    S
      0.47590500000          1.0000000
Ne    P
     99.166000000            1.0000000
Ne    P
     28.822000000            1.0000000
Ne    P
      8.4094200000           1.0000000
Ne    P
      5.5649600000           1.0000000
Ne    P
      2.6574400000           1.0000000
Ne    P
      1.3281700000           1.0000000
Ne    P
      0.73485000000          1.0000000
Ne    D
     28.745200000            1.0000000
Ne    D
      8.9240100000           1.0000000
Ne    D
      5.9214600000           1.0000000
Ne    D
      2.7948000000           1.0000000
Ne    D
      1.6289400000           1.0000000
Ne    D
      0.59989500000          1.0000000
Ne    F
     13.309000000            1.0000000
Ne    F
      6.5987600000           1.0000000
Ne    F
      3.0465600000           1.0000000
Ne    F
      2.0938000000           1.0000000
Ne    F
      1.0360700000           1.0000000
Ne    G
      8.2858100000           1.0000000
Ne    G
      4.2402700000           1.0000000
Ne    G
      2.2925000000           1.0000000
Ne    H
      4.4923100000           1.0000000
end

set "ri-mp2 basis" "cc-pVQZ-RI"

mp2
  scs
  freeze 0
  scratchdisk 4096
end
task mp2 energy
task direct_mp2 energy
task rimp2 energy

mp2
  scs; fos 1.0; fss 1.0
  freeze 0
  scratchdisk 4096
end
task mp2 energy
task direct_mp2 energy
task rimp2 energy

mp2
  scs; fos 0.0; fss 0.0
  freeze 0
  scratchdisk 4096
end
task mp2 energy
task direct_mp2 energy
task rimp2 energy

mp2
  scs; fos 1.0; fss 0.0
  freeze 0
  scratchdisk 4096
end
task mp2 energy
task direct_mp2 energy
task rimp2 energy

mp2
  scs; fos 0.0; fss 1.0
  freeze 0
  scratchdisk 4096
end
task mp2 energy
task direct_mp2 energy
task rimp2 energy

mp2
  scs; fos 1000.0; fss 1000.0
  freeze 0
  scratchdisk 4096
end
task mp2 energy
task direct_mp2 energy
task rimp2 energy

================================================================================

 Output coordinates in angstroms (scale by  1.889725989 to convert to a.u.)

  No.       Tag          Charge          X              Y              Z
 ---- ---------------- ---------- -------------- -------------- --------------
    1 Ne                  10.0000     0.00000000     0.00000000     0.00000000

         Total SCF energy =   -128.543469659094

 Vector    2  Occ=2.000000D+00  E=-1.929338D+00

 Vector    3  Occ=2.000000D+00  E=-8.489590D-01

 Vector    4  Occ=2.000000D+00  E=-8.489590D-01

 Vector    5  Occ=2.000000D+00  E=-8.489590D-01

 Vector    6  Occ=0.000000D+00  E= 8.089041D-01

 Vector    7  Occ=0.000000D+00  E= 8.089041D-01

 Vector    8  Occ=0.000000D+00  E= 8.089041D-01

 Vector    9  Occ=0.000000D+00  E= 9.355999D-01

 Vector   10  Occ=0.000000D+00  E= 1.997811D+00

 Vector   11  Occ=0.000000D+00  E= 1.997811D+00

 Vector   12  Occ=0.000000D+00  E= 1.997811D+00

 Vector   13  Occ=0.000000D+00  E= 1.997811D+00

 Vector   14  Occ=0.000000D+00  E= 1.997811D+00

 Vector   15  Occ=0.000000D+00  E= 3.932819D+00

       Multipole analysis of the density wrt the origin
       ------------------------------------------------

     L   x y z        total         open         nuclear
     -   - - -        -----         ----         -------
     0   0 0 0     -0.000000      0.000000     10.000000

     1   1 0 0      0.000000      0.000000      0.000000
     1   0 1 0     -0.000000      0.000000      0.000000
     1   0 0 1     -0.000000      0.000000      0.000000

     2   2 0 0     -3.110663      0.000000      0.000000
     2   1 1 0      0.000000      0.000000      0.000000
     2   1 0 1      0.000000      0.000000      0.000000
     2   0 2 0     -3.110663      0.000000      0.000000
     2   0 1 1     -0.000000      0.000000      0.000000

          Total MP2 energy          -128.869728102804
         Total SCF energy =   -128.543469659094
         Total SCF energy =   -128.543469659094
          Total MP2 energy          -128.865123845914
         Total SCF energy =   -128.543469659094
          Total MP2 energy          -128.869728102804
         Total SCF energy =   -128.543469659094
         Total SCF energy =   -128.543469659094
          Total MP2 energy          -128.869719488132
         Total SCF energy =   -128.543469659094
          Total MP2 energy          -128.869728102804
         Total SCF energy =   -128.543469659094
         Total SCF energy =   -128.543469659094
          Total MP2 energy          -128.543469659094
         Total SCF energy =   -128.543469659094
          Total MP2 energy          -128.869728102804
         Total SCF energy =   -128.543469659094
         Total SCF energy =   -128.543469659094
          Total MP2 energy          -128.789128401949
         Total SCF energy =   -128.543469659094
          Total MP2 energy          -128.869728102804
         Total SCF energy =   -128.543469659094
         Total SCF energy =   -128.543469659094
          Total MP2 energy          -128.624060745278
         Total SCF energy =   -128.543469659094
          Total MP2 energy          -128.869728102804
         Total SCF energy =   -128.543469659094
         Total SCF energy =   -128.543469659094
          Total MP2 energy          -454.793298697009
 Total times  cpu:       12.6s     wall:       12.6s
