============================== echo of input deck ==============================
echo
start o2_bnl

geometry units angstrom
O        0.0000000000      0.0000000000      0.60066850000
O        0.0000000000      0.0000000000     -0.60066850000
symmetry c1
end

basis spherical
 * library "cc-pVTZ"
end

BASIS "cd basis" print
O    S
          9.57843253E+02         0.56249624
          2.81967425E+02         1.49108985
          9.01998320E+01         3.86547733
O    S
          3.11382990E+01         3.60577725
O    S
          1.14937320E+01         0.23005858
O    S
          4.48404900E+00        -0.05015769
O    S
          1.82350400E+00         1.05070463
O    S
          7.60903000E-01         0.58565488
O    S
          3.20292000E-01         0.07499129
O    P
          6.14708863E-01        -0.08557844
O    P
          1.47530127E+00         0.04179996
O    P
          3.69562968E+00        -0.05855108
O    D
          7.65267200E+00         0.09106873
O    D
          2.21786800E+00         0.11163134
O    D
          6.82337000E-01         0.04600666
O    F
          2.19178082E+00         1.00000000
END

set int:cando_txs f

dft
 direct
 xc xbnl07 0.90 lyp 1.00 hfexch 1.00
 cam 0.5 cam_alpha 0.0 cam_beta 1.0
 odft
 mult 3
end
task dft energy

driver
 clear
 maxiter 100
end
task dft optimize
================================================================================

         Total DFT energy =     -147.994422470903

 Vector   16  Occ=0.000000D+00  E= 7.765128D-01

 Vector   17  Occ=0.000000D+00  E= 8.224954D-01

 Vector   18  Occ=0.000000D+00  E= 1.373508D+00

 Vector   19  Occ=0.000000D+00  E= 1.386728D+00

         Total DFT energy =   -147.994422470903
@ Step       Energy      Delta E   Gmax     Grms     Xrms     Xmax   Walltime
@ ---- ---------------- -------- -------- -------- -------- -------- --------
@    0    -147.99442247  0.0D+00  0.00053  0.00053  0.00000  0.00000     13.2
         Total DFT energy =     -147.994422444307

 Vector    1  Occ=1.000000D+00  E=-1.883234D+01

 Vector    2  Occ=1.000000D+00  E=-1.883217D+01

 Vector    3  Occ=1.000000D+00  E=-1.453987D+00

 Vector    4  Occ=1.000000D+00  E=-9.633628D-01

 Vector    5  Occ=1.000000D+00  E=-7.088632D-01

 Vector    6  Occ=1.000000D+00  E=-7.088632D-01

 Vector    7  Occ=1.000000D+00  E=-6.838217D-01

 Vector    8  Occ=1.000000D+00  E=-4.326780D-01

 Vector    9  Occ=1.000000D+00  E=-4.326780D-01

 Vector   10  Occ=0.000000D+00  E= 3.264078D-01

 Vector   11  Occ=0.000000D+00  E= 6.256688D-01

 Vector   12  Occ=0.000000D+00  E= 6.256688D-01

 Vector   13  Occ=0.000000D+00  E= 6.304907D-01

 Vector   14  Occ=0.000000D+00  E= 6.680924D-01

 Vector   15  Occ=0.000000D+00  E= 7.411153D-01

 Vector   16  Occ=0.000000D+00  E= 7.411153D-01

 Vector   17  Occ=0.000000D+00  E= 8.020489D-01

 Vector   18  Occ=0.000000D+00  E= 1.344726D+00

 Vector   19  Occ=0.000000D+00  E= 1.351364D+00

 Vector    1  Occ=1.000000D+00  E=-1.880478D+01

 Vector    2  Occ=1.000000D+00  E=-1.880455D+01

 Vector    3  Occ=1.000000D+00  E=-1.408372D+00

 Vector    4  Occ=1.000000D+00  E=-8.775415D-01

 Vector    5  Occ=1.000000D+00  E=-6.439350D-01

 Vector    6  Occ=1.000000D+00  E=-6.025623D-01

 Vector    7  Occ=1.000000D+00  E=-6.025623D-01

 Vector    8  Occ=0.000000D+00  E= 1.921521D-02

 Vector    9  Occ=0.000000D+00  E= 1.921521D-02

 Vector   10  Occ=0.000000D+00  E= 3.568598D-01

 Vector   11  Occ=0.000000D+00  E= 6.516667D-01

 Vector   12  Occ=0.000000D+00  E= 6.516667D-01

 Vector   13  Occ=0.000000D+00  E= 6.565121D-01

 Vector   14  Occ=0.000000D+00  E= 6.765725D-01

 Vector   15  Occ=0.000000D+00  E= 7.764621D-01

 Vector   16  Occ=0.000000D+00  E= 7.764621D-01

 Vector   17  Occ=0.000000D+00  E= 8.225029D-01

 Vector   18  Occ=0.000000D+00  E= 1.373568D+00

 Vector   19  Occ=0.000000D+00  E= 1.386883D+00

         Total DFT energy =   -147.994422444307
@    1    -147.99442244  2.7D-08  0.00059  0.00059  0.00034  0.00059     21.0
         Total DFT energy =     -147.994422625014

                    DFT Final Alpha Molecular Orbital Analysis
                    ------------------------------------------

 Vector    1  Occ=1.000000D+00  E=-1.883218D+01

 Vector    2  Occ=1.000000D+00  E=-1.883201D+01

 Vector    3  Occ=1.000000D+00  E=-1.454169D+00

 Vector    4  Occ=1.000000D+00  E=-9.632258D-01

 Vector    5  Occ=1.000000D+00  E=-7.089223D-01

 Vector    6  Occ=1.000000D+00  E=-7.089223D-01

 Vector    7  Occ=1.000000D+00  E=-6.838269D-01

 Vector    8  Occ=1.000000D+00  E=-4.325231D-01

 Vector    9  Occ=1.000000D+00  E=-4.325231D-01

 Vector   10  Occ=0.000000D+00  E= 3.267608D-01

 Vector   11  Occ=0.000000D+00  E= 6.256616D-01

 Vector   12  Occ=0.000000D+00  E= 6.256616D-01

 Vector   13  Occ=0.000000D+00  E= 6.306984D-01

 Vector   14  Occ=0.000000D+00  E= 6.680531D-01

 Vector   15  Occ=0.000000D+00  E= 7.411446D-01

 Vector   16  Occ=0.000000D+00  E= 7.411446D-01

 Vector   17  Occ=0.000000D+00  E= 8.020605D-01

 Vector   18  Occ=0.000000D+00  E= 1.344718D+00

 Vector   19  Occ=0.000000D+00  E= 1.351308D+00

 Vector    1  Occ=1.000000D+00  E=-1.880462D+01

 Vector    2  Occ=1.000000D+00  E=-1.880438D+01

 Vector    3  Occ=1.000000D+00  E=-1.408560D+00

 Vector    4  Occ=1.000000D+00  E=-8.774051D-01

 Vector    5  Occ=1.000000D+00  E=-6.439326D-01

 Vector    6  Occ=1.000000D+00  E=-6.026377D-01

 Vector    7  Occ=1.000000D+00  E=-6.026377D-01

 Vector    8  Occ=0.000000D+00  E= 1.938599D-02

 Vector    9  Occ=0.000000D+00  E= 1.938599D-02

 Vector   10  Occ=0.000000D+00  E= 3.571770D-01

 Vector   11  Occ=0.000000D+00  E= 6.516534D-01

 Vector   12  Occ=0.000000D+00  E= 6.516534D-01

 Vector   13  Occ=0.000000D+00  E= 6.567657D-01

 Vector   14  Occ=0.000000D+00  E= 6.765303D-01

 Vector   15  Occ=0.000000D+00  E= 7.765038D-01

 Vector   16  Occ=0.000000D+00  E= 7.765038D-01

 Vector   17  Occ=0.000000D+00  E= 8.225160D-01

 Vector   18  Occ=0.000000D+00  E= 1.373551D+00

 Vector   19  Occ=0.000000D+00  E= 1.386822D+00

     Multipole analysis of the density
     ---------------------------------

     L   x y z        total         alpha         beta         nuclear
     -   - - -        -----         -----         ----         -------
     0   0 0 0     -0.000000     -9.000000     -7.000000     16.000000

     1   1 0 0      0.000000      0.000000      0.000000      0.000000
     1   0 1 0      0.000000      0.000000      0.000000      0.000000
     1   0 0 1     -0.000000     -0.000000     -0.000000      0.000000

     2   2 0 0     -7.611441     -4.435502     -3.175939      0.000000
     2   1 1 0      0.000000      0.000000      0.000000      0.000000
     2   1 0 1     -0.000000     -0.000000     -0.000000      0.000000
     2   0 2 0     -7.611441     -4.435502     -3.175939      0.000000
     2   0 1 1      0.000000      0.000000     -0.000000      0.000000

         Total DFT energy =   -147.994422625014
@    2    -147.99442263 -1.8D-07  0.00003  0.00003  0.00018  0.00031     27.7
@    2    -147.99442263 -1.8D-07  0.00003  0.00003  0.00018  0.00031     27.7

 Output coordinates in angstroms (scale by  1.889725989 to convert to a.u.)

  No.       Tag          Charge          X              Y              Z
 ---- ---------------- ---------- -------------- -------------- --------------
    1 O                    8.0000     0.00000000     0.00000000     0.60081632
    2 O                    8.0000     0.00000000     0.00000000    -0.60081632

 Total times  cpu:       26.0s     wall:       27.7s
