============================== echo of input deck ==============================
echo
start o2_zora_so

geometry noautoz units angstrom
symmetry c1
 O 0 0 -0.60000000
 O 0 0  0.60000000
end

basis spherical
 * library "DZVP (DFT Orbital)"
end

dft
 grid xfine
 iterations 100
 XC b3lyp
 odft
 mult 3
end

driver
 clear
 maxiter 100
end

relativistic
  zora on
  zora:cutoff 1d-30
end

task sodft optimize
task sodft freq
================================================================================

@ Step       Energy      Delta E   Gmax     Grms     Xrms     Xmax   Walltime
@ ---- ---------------- -------- -------- -------- -------- -------- --------
@    0    -150.50696231  0.0D+00  0.03582  0.02068  0.00000  0.00000      2.2
@    1    -150.50766667 -7.0D-04  0.00033  0.00019  0.01214  0.02103      5.8

 Vector   33  Occ=0.000000D+00  E= 8.866391D-01

 Vector   34  Occ=0.000000D+00  E= 9.177345D-01

 Vector   35  Occ=0.000000D+00  E= 1.473627D+00

 Vector   36  Occ=0.000000D+00  E= 1.473736D+00

 Vector   37  Occ=0.000000D+00  E= 1.506913D+00

 Vector   38  Occ=0.000000D+00  E= 1.507037D+00

 Vector   39  Occ=0.000000D+00  E= 1.507545D+00

 Vector   40  Occ=0.000000D+00  E= 1.507648D+00

 Vector   41  Occ=0.000000D+00  E= 1.563129D+00

 Vector   42  Occ=0.000000D+00  E= 1.563233D+00

 Vector   43  Occ=0.000000D+00  E= 1.581171D+00

 Vector   44  Occ=0.000000D+00  E= 1.623198D+00

 Vector   45  Occ=0.000000D+00  E= 1.881673D+00

 Vector   46  Occ=0.000000D+00  E= 1.881789D+00

 Vector   47  Occ=0.000000D+00  E= 1.952556D+00

 Vector   48  Occ=0.000000D+00  E= 1.952673D+00

 Vector   49  Occ=0.000000D+00  E= 2.309917D+00

 Vector   50  Occ=0.000000D+00  E= 2.348139D+00

 Vector   51  Occ=0.000000D+00  E= 2.429216D+00

 Vector   52  Occ=0.000000D+00  E= 2.454954D+00

 Vector   53  Occ=0.000000D+00  E= 2.465278D+00

 Vector   54  Occ=0.000000D+00  E= 2.465373D+00

 Vector   55  Occ=0.000000D+00  E= 2.507738D+00

 Vector   56  Occ=0.000000D+00  E= 2.507833D+00

                       DFT Final Molecular Orbital Analysis
                       ------------------------------------

 Vector    1  Occ=1.000000D+00  E=-1.932341D+01

 Vector    2  Occ=1.000000D+00  E=-1.932322D+01

 Vector    3  Occ=1.000000D+00  E=-1.929177D+01

 Vector    4  Occ=1.000000D+00  E=-1.929144D+01

 Vector    5  Occ=1.000000D+00  E=-1.308252D+00

 Vector    6  Occ=1.000000D+00  E=-1.250136D+00

 Vector    7  Occ=1.000000D+00  E=-8.496090D-01

 Vector    8  Occ=1.000000D+00  E=-7.610726D-01

 Vector    9  Occ=1.000000D+00  E=-5.680007D-01

 Vector   10  Occ=1.000000D+00  E=-5.671556D-01

 Vector   11  Occ=1.000000D+00  E=-5.543861D-01

 Vector   12  Occ=1.000000D+00  E=-5.143855D-01

 Vector   13  Occ=1.000000D+00  E=-4.655324D-01

 Vector   14  Occ=1.000000D+00  E=-4.647929D-01

 Vector   15  Occ=1.000000D+00  E=-3.215693D-01

 Vector   16  Occ=1.000000D+00  E=-3.205051D-01

 Vector   17  Occ=0.000000D+00  E=-1.285231D-01

 Vector   18  Occ=0.000000D+00  E=-1.276144D-01

 Vector   19  Occ=0.000000D+00  E= 1.500110D-01

 Vector   20  Occ=0.000000D+00  E= 1.868867D-01

 Vector   21  Occ=0.000000D+00  E= 4.415236D-01

 Vector   22  Occ=0.000000D+00  E= 4.621221D-01

 Vector   23  Occ=0.000000D+00  E= 4.838124D-01

 Vector   24  Occ=0.000000D+00  E= 4.844911D-01

 Vector   25  Occ=0.000000D+00  E= 5.264150D-01

 Vector   26  Occ=0.000000D+00  E= 5.271697D-01

 Vector   27  Occ=0.000000D+00  E= 5.493009D-01

 Vector   28  Occ=0.000000D+00  E= 5.573602D-01

 Vector   29  Occ=0.000000D+00  E= 5.856196D-01

 Vector   30  Occ=0.000000D+00  E= 5.862272D-01

 Vector   31  Occ=0.000000D+00  E= 6.314622D-01

 Vector   32  Occ=0.000000D+00  E= 6.321684D-01

 Vector   33  Occ=0.000000D+00  E= 8.866237D-01

 Vector   34  Occ=0.000000D+00  E= 9.177195D-01

 Vector   35  Occ=0.000000D+00  E= 1.473730D+00

 Vector   36  Occ=0.000000D+00  E= 1.473840D+00

 Vector   37  Occ=0.000000D+00  E= 1.507022D+00

 Vector   38  Occ=0.000000D+00  E= 1.507146D+00

 Vector   39  Occ=0.000000D+00  E= 1.507473D+00

 Vector   40  Occ=0.000000D+00  E= 1.507576D+00

 Vector   41  Occ=0.000000D+00  E= 1.563053D+00

 Vector   42  Occ=0.000000D+00  E= 1.563156D+00

 Vector   43  Occ=0.000000D+00  E= 1.581305D+00

 Vector   44  Occ=0.000000D+00  E= 1.623336D+00

 Vector   45  Occ=0.000000D+00  E= 1.881770D+00

 Vector   46  Occ=0.000000D+00  E= 1.881886D+00

 Vector   47  Occ=0.000000D+00  E= 1.952656D+00

 Vector   48  Occ=0.000000D+00  E= 1.952772D+00

 Vector   49  Occ=0.000000D+00  E= 2.310300D+00

 Vector   50  Occ=0.000000D+00  E= 2.348523D+00

 Vector   51  Occ=0.000000D+00  E= 2.429257D+00

 Vector   52  Occ=0.000000D+00  E= 2.454993D+00

 Vector   53  Occ=0.000000D+00  E= 2.465467D+00

 Vector   54  Occ=0.000000D+00  E= 2.465562D+00

 Vector   55  Occ=0.000000D+00  E= 2.507928D+00

 Vector   56  Occ=0.000000D+00  E= 2.508023D+00

     Multipole analysis of the density
     ---------------------------------

     L   x y z        total         alpha         beta         nuclear
     -   - - -        -----         -----         ----         -------
     0   0 0 0     -0.000000     -8.999996     -7.000004     16.000000

     1   1 0 0     -0.000000      0.000000     -0.000000     -0.000000
     1   0 1 0     -0.000000      0.000000     -0.000000      0.000000
     1   0 0 1     -0.000003     -0.000000     -0.000003      0.000000

     2   2 0 0     -7.489079     -4.321998     -3.167081      0.000000
     2   1 1 0     -0.000000     -0.000000     -0.000000      0.000000
     2   1 0 1      0.000000      0.000000      0.000000     -0.000000
     2   0 2 0     -7.489079     -4.321998     -3.167081      0.000000
     2   0 1 1      0.000000      0.000000      0.000000     -0.000000

@    2    -150.50766707 -4.0D-07  0.00028  0.00016  0.00022  0.00038      8.4
@    2    -150.50766707 -4.0D-07  0.00028  0.00016  0.00022  0.00038      8.4

 Output coordinates in angstroms (scale by  1.889725989 to convert to a.u.)

  No.       Tag          Charge          X              Y              Z
 ---- ---------------- ---------- -------------- -------------- --------------
    1 O                    8.0000     0.00000000     0.00000000    -0.61092579
    2 O                    8.0000    -0.00000000    -0.00000000     0.61092579

         Total DFT energy =   -150.507667070410
 Zero-Point correction to Energy  =    2.301 kcal/mol  (  0.003667 au)
 Thermal correction to Energy     =    3.784 kcal/mol  (  0.006029 au)
 Thermal correction to Enthalpy   =    4.376 kcal/mol  (  0.006973 au)
 Total Entropy                    =   48.208 cal/mol-K
   - Translational                =   36.304 cal/mol-K (mol. weight =  31.9898)
   - Rotational                   =   11.896 cal/mol-K (symmetry #  =        1)
   - Vibrational                  =    0.007 cal/mol-K
   - Translational                  =    2.979 cal/mol-K
   - Rotational                     =    1.986 cal/mol-K
   - Vibrational                    =    0.051 cal/mol-K
 P.Frequency       -0.00        0.00        0.00        0.00        0.00     1610.40
 Total times  cpu:       19.8s     wall:       19.9s
