============================== echo of input deck ==============================
echo

start

# Test of two-layer ONIOM geometry optimization and unscaled frequencies
# for acetaldehyde following
# Dapprich, Komaromi, Byun, Morokuma and Frisch, J. Mol. Struct (Theochem)
# 461-462 (1999) 1-21.

# Vibrational frequencies and geometry are correctly reproduced.
# See end for the correct output, or look in the paper.

geometry # sto-3g optmized geometry
  O     0.25977444     1.26351414    -0.32184727
  H    -1.42512409     0.38186873     0.37668588
  C    -0.38369252     0.28899452     0.02138351
  H     0.11527688    -1.57028792     1.00746379
  H    -0.46513157    -1.76803678    -0.64211149
  H     1.17645788    -1.17137932    -0.35247229
  C     0.15223603    -1.15091137     0.00543109
end

basis sto-3g
  h library sto-3g
  c library sto-3g
  o library sto-3g
end

basis dunning
  h library "SV (Dunning-Hay)"
  c library "SV (Dunning-Hay)"
  o library "SV (Dunning-Hay)"
end

scf; thresh 1e-6; end
dft; xc b3lyp; grid fine; convergence density 1e-6; end

oniom
  print low
  high dft basis dunning
  low  scf basis sto-3g
  model 3  3 7 0.709
end

driver; clear; end  # So that results are more reproducible
task oniom optimize

task oniom freq
================================================================================

         Total SCF energy =   -150.945992854764
         Total SCF energy =   -112.354098174651
         Total DFT energy =     -114.482430869303
@ Step       Energy      Delta E   Gmax     Grms     Xrms     Xmax   Walltime
@ ---- ---------------- -------- -------- -------- -------- -------- --------
@    0    -153.07432555  0.0D+00  0.03698  0.00817  0.00000  0.00000      1.0
         Total SCF energy =   -150.943489165160
         Total SCF energy =   -112.351489165384
         Total DFT energy =     -114.483045696246
         Total SCF energy =   -150.944785006028
         Total SCF energy =   -112.352822743860
         Total DFT energy =     -114.483250093638
@    1    -153.07521236 -8.9D-04  0.00151  0.00054  0.00982  0.03342      2.6
         Total SCF energy =   -150.944736237079
         Total SCF energy =   -112.352732791950
         Total DFT energy =     -114.483252463168
         Total SCF energy =   -150.944702426367
         Total SCF energy =   -112.352685127869
         Total DFT energy =     -114.483242033212
@    2    -153.07525933 -4.7D-05  0.00049  0.00016  0.00701  0.02339      4.0
         Total SCF energy =   -150.944696112339
         Total SCF energy =   -112.352669187598
         Total DFT energy =     -114.483235295037
         Total SCF energy =   -150.944696112339
         Total SCF energy =   -112.352669187598
         Total DFT energy =     -114.483235295066
@    3    -153.07526222 -2.9D-06  0.00009  0.00004  0.00188  0.00518      5.3
         Total SCF energy =   -150.944694695753
         Total SCF energy =   -112.352673970793
         Total DFT energy =     -114.483241688879
         Total SCF energy =   -150.944694365712
         Total SCF energy =   -112.352674928494
         Total DFT energy =     -114.483242982652
@    4    -153.07526242 -2.0D-07  0.00004  0.00001  0.00053  0.00126      6.7
@    4    -153.07526242 -2.0D-07  0.00004  0.00001  0.00053  0.00126      6.7

 Output coordinates in angstroms (scale by  1.889725989 to convert to a.u.)

  No.       Tag          Charge          X              Y              Z
 ---- ---------------- ---------- -------------- -------------- --------------
    1 O                    8.0000     0.26053018     1.26333387     0.00000000
    2 H                    1.0000    -1.53065490     0.28213866     0.00000000
    3 C                    6.0000    -0.42122415     0.22467328     0.00000000
    4 H                    1.0000    -0.15625929    -1.73362429     0.88002028
    5 H                    1.0000    -0.15625929    -1.73362429    -0.88002028
    6 H                    1.0000     1.26060663    -1.13908700     0.00000000
    7 C                    6.0000     0.17652229    -1.18904872     0.00000000

         Total SCF energy =   -150.944694365711
         Total SCF energy =   -112.352674928494
         Total DFT energy =     -114.483242982653
         Total SCF energy =   -150.944668228886
         Total SCF energy =   -112.352651820625
         Total DFT energy =     -114.483245885712
         Total SCF energy =   -150.944720130584
         Total SCF energy =   -112.352697662254
         Total DFT energy =     -114.483239831922
         Total SCF energy =   -150.944652914432
         Total SCF energy =   -112.352629888470
         Total DFT energy =     -114.483239134849
         Total SCF energy =   -150.944735103920
         Total SCF energy =   -112.352719255138
         Total DFT energy =     -114.483246319952
         Total SCF energy =   -150.944694344687
         Total SCF energy =   -112.352674908293
         Total DFT energy =     -114.483242980029
         Total SCF energy =   -150.944694344687
         Total SCF energy =   -112.352674908293
         Total DFT energy =     -114.483242974153
         Total SCF energy =   -150.944700785422
         Total SCF energy =   -112.352683406453
         Total DFT energy =     -114.483244879244
         Total SCF energy =   -150.944687516855
         Total SCF energy =   -112.352666020620
         Total DFT energy =     -114.483240806962
         Total SCF energy =   -150.944691351415
         Total SCF energy =   -112.352669904701
         Total DFT energy =     -114.483240957452
         Total SCF energy =   -150.944697289997
         Total SCF energy =   -112.352679864372
         Total DFT energy =     -114.483244970729
         Total SCF energy =   -150.944694352083
         Total SCF energy =   -112.352674915865
         Total DFT energy =     -114.483242978792
         Total SCF energy =   -150.944694352083
         Total SCF energy =   -112.352674915865
         Total DFT energy =     -114.483242973008
         Total SCF energy =   -150.944714720577
         Total SCF energy =   -112.352685121891
         Total DFT energy =     -114.483232498186
         Total SCF energy =   -150.944673076087
         Total SCF energy =   -112.352663885878
         Total DFT energy =     -114.483252889534
         Total SCF energy =   -150.944737444685
         Total SCF energy =   -112.352729918472
         Total DFT energy =     -114.483254553091
         Total SCF energy =   -150.944650243945
         Total SCF energy =   -112.352618973712
         Total DFT energy =     -114.483230734405
         Total SCF energy =   -150.944694243551
         Total SCF energy =   -112.352674841366
         Total DFT energy =     -114.483242918761
         Total SCF energy =   -150.944694243551
         Total SCF energy =   -112.352674841366
         Total DFT energy =     -114.483242913760
         Total SCF energy =   -150.944694328328
         Total SCF energy =   -112.352674928494
         Total DFT energy =     -114.483242997909
         Total SCF energy =   -150.944694296368
         Total SCF energy =   -112.352674928494
         Total DFT energy =     -114.483242997909
         Total SCF energy =   -150.944694292336
         Total SCF energy =   -112.352674928494
         Total DFT energy =     -114.483242997909
         Total SCF energy =   -150.944694267569
         Total SCF energy =   -112.352674928494
         Total DFT energy =     -114.483242997909
         Total SCF energy =   -150.944694179625
         Total SCF energy =   -112.352674928494
         Total DFT energy =     -114.483242997936
         Total SCF energy =   -150.944694214053
         Total SCF energy =   -112.352674928494
         Total DFT energy =     -114.483242997936
         Total SCF energy =   -150.944694082420
         Total SCF energy =   -112.352674928494
         Total DFT energy =     -114.483242997936
         Total SCF energy =   -150.944694164779
         Total SCF energy =   -112.352674928494
         Total DFT energy =     -114.483242997936
         Total SCF energy =   -150.944694320505
         Total SCF energy =   -112.352674928494
         Total DFT energy =     -114.483242997909
         Total SCF energy =   -150.944694339502
         Total SCF energy =   -112.352674928494
         Total DFT energy =     -114.483242997936
         Total SCF energy =   -150.944694331240
         Total SCF energy =   -112.352674928494
         Total DFT energy =     -114.483242997909
         Total SCF energy =   -150.944694331240
         Total SCF energy =   -112.352674928494
         Total DFT energy =     -114.483242997909
         Total SCF energy =   -150.944692444390
         Total SCF energy =   -112.352678503553
         Total DFT energy =     -114.483248103273
         Total SCF energy =   -150.944695437321
         Total SCF energy =   -112.352671283716
         Total DFT energy =     -114.483237837910
         Total SCF energy =   -150.944694455178
         Total SCF energy =   -112.352669013709
         Total DFT energy =     -114.483236609929
         Total SCF energy =   -150.944693558347
         Total SCF energy =   -112.352680632104
         Total DFT energy =     -114.483249230356
         Total SCF energy =   -150.944693967612
         Total SCF energy =   -112.352674924202
         Total DFT energy =     -114.483242979517
         Total SCF energy =   -150.944693967612
         Total SCF energy =   -112.352674924202
         Total DFT energy =     -114.483242979513
 Zero-Point correction to Energy  =   39.299 kcal/mol  (  0.062627 au)
 Thermal correction to Energy     =   41.695 kcal/mol  (  0.066445 au)
 Thermal correction to Enthalpy   =   42.287 kcal/mol  (  0.067388 au)
 Total Entropy                    =   62.502 cal/mol-K
   - Translational                =   37.256 cal/mol-K (mol. weight =  44.0262)
   - Rotational                   =   21.737 cal/mol-K (symmetry #  =        1)
   - Vibrational                  =    3.510 cal/mol-K
   - Translational                  =    2.979 cal/mol-K
   - Rotational                     =    2.979 cal/mol-K
   - Vibrational                    =    4.654 cal/mol-K
 P.Frequency       -0.00       -0.00        0.00        0.00        0.00        0.00
 P.Frequency      166.88      490.00      861.91      989.45     1253.28     1260.83
 P.Frequency     1429.10     1691.42     1718.85     1804.82     1816.35     2956.39
 P.Frequency     3563.62     3737.98     3762.31
 Total times  cpu:       38.9s     wall:       39.2s
