============================== echo of input deck ==============================
echo

start

# Test of two-layer ONIOM geometry optimization and unscaled frequencies
# for acetaldehyde following
# Dapprich, Komaromi, Byun, Morokuma and Frisch, J. Mol. Struct (Theochem)
# 461-462 (1999) 1-21.

# Vibrational frequencies and geometry are correctly reproduced.
# See end for the correct output, or look in the paper.

geometry # sto-3g optmized geometry
  O     0.25977444     1.26351414    -0.32184727
  H    -1.42512409     0.38186873     0.37668588
  C    -0.38369252     0.28899452     0.02138351
  H     0.11527688    -1.57028792     1.00746379
  H    -0.46513157    -1.76803678    -0.64211149
  H     1.17645788    -1.17137932    -0.35247229
  C     0.15223603    -1.15091137     0.00543109
end

basis sto-3g
  h library sto-3g
  c library sto-3g
  o library sto-3g
end

basis dunning
  h library "SV (Dunning-Hay)"
  c library "SV (Dunning-Hay)"
  o library "SV (Dunning-Hay)"
end

scf; thresh 1e-6; end
dft; xc b3lyp; grid fine; convergence density 1e-6; end

oniom
  print low
  high dft basis dunning
  low  scf basis sto-3g
  model 3  3 7 0.709
end

driver; clear; end  # So that results are more reproducible
task oniom optimize

task oniom freq
================================================================================

         Total SCF energy =   -150.945992976880
         Total SCF energy =   -112.354098171616
         Total DFT energy =     -114.482430868498
@ Step       Energy      Delta E   Gmax     Grms     Xrms     Xmax   Walltime
@ ---- ---------------- -------- -------- -------- -------- -------- --------
@    0    -153.07432567  0.0D+00  0.03698  0.00817  0.00000  0.00000      1.8
         Total SCF energy =   -150.943489253953
         Total SCF energy =   -112.351489164048
         Total DFT energy =     -114.483045695855
         Total SCF energy =   -150.944785149584
         Total SCF energy =   -112.352822786126
         Total DFT energy =     -114.483250094502
@    1    -153.07521246 -8.9D-04  0.00151  0.00054  0.00982  0.03342      2.9
         Total SCF energy =   -150.944736345706
         Total SCF energy =   -112.352732793797
         Total DFT energy =     -114.483252462821
         Total SCF energy =   -150.944702497004
         Total SCF energy =   -112.352685082572
         Total DFT energy =     -114.483242023922
@    2    -153.07525944 -4.7D-05  0.00050  0.00016  0.00701  0.02339      3.9
         Total SCF energy =   -150.944696213375
         Total SCF energy =   -112.352669181715
         Total DFT energy =     -114.483235294417
         Total SCF energy =   -150.944696213374
         Total SCF energy =   -112.352669181715
         Total DFT energy =     -114.483235294448
@    3    -153.07526233 -2.9D-06  0.00009  0.00004  0.00187  0.00518      4.8
         Total SCF energy =   -150.944694802825
         Total SCF energy =   -112.352673971138
         Total DFT energy =     -114.483241688815
         Total SCF energy =   -150.944694468799
         Total SCF energy =   -112.352674944913
         Total DFT energy =     -114.483243002745
@    4    -153.07526253 -2.0D-07  0.00004  0.00001  0.00053  0.00126      5.7
@    4    -153.07526253 -2.0D-07  0.00004  0.00001  0.00053  0.00126      5.7

 Output coordinates in angstroms (scale by  1.889725989 to convert to a.u.)

  No.       Tag          Charge          X              Y              Z
 ---- ---------------- ---------- -------------- -------------- --------------
    1 O                    8.0000     0.26053156     1.26333243     0.00000000
    2 H                    1.0000    -1.53065518     0.28213932     0.00000000
    3 C                    6.0000    -0.42122506     0.22467320     0.00000000
    4 H                    1.0000    -0.15625863    -1.73362473     0.88002055
    5 H                    1.0000    -0.15625863    -1.73362473    -0.88002055
    6 H                    1.0000     1.26060602    -1.13908530     0.00000000
    7 C                    6.0000     0.17652139    -1.18904867     0.00000000

         Total SCF energy =   -150.944694468799
         Total SCF energy =   -112.352674944913
         Total DFT energy =     -114.483243002745
         Total SCF energy =   -150.944668332218
         Total SCF energy =   -112.352651836607
         Total DFT energy =     -114.483245894660
         Total SCF energy =   -150.944720234882
         Total SCF energy =   -112.352697679125
         Total DFT energy =     -114.483239841438
         Total SCF energy =   -150.944653017806
         Total SCF energy =   -112.352629904986
         Total DFT energy =     -114.483239144134
         Total SCF energy =   -150.944735208132
         Total SCF energy =   -112.352719271430
         Total DFT energy =     -114.483246329112
         Total SCF energy =   -150.944694448335
         Total SCF energy =   -112.352674924714
         Total DFT energy =     -114.483242993781
         Total SCF energy =   -150.944694448334
         Total SCF energy =   -112.352674924714
         Total DFT energy =     -114.483242993721
         Total SCF energy =   -150.944700888796
         Total SCF energy =   -112.352683422440
         Total DFT energy =     -114.483244888157
         Total SCF energy =   -150.944687621095
         Total SCF energy =   -112.352666037472
         Total DFT energy =     -114.483240816495
         Total SCF energy =   -150.944691455376
         Total SCF energy =   -112.352669921252
         Total DFT energy =     -114.483240966651
         Total SCF energy =   -150.944697393650
         Total SCF energy =   -112.352679880660
         Total DFT energy =     -114.483244979841
         Total SCF energy =   -150.944694455891
         Total SCF energy =   -112.352674932284
         Total DFT energy =     -114.483242996623
         Total SCF energy =   -150.944694455890
         Total SCF energy =   -112.352674932284
         Total DFT energy =     -114.483242992886
         Total SCF energy =   -150.944714825244
         Total SCF energy =   -112.352685139315
         Total DFT energy =     -114.483232508134
         Total SCF energy =   -150.944673178998
         Total SCF energy =   -112.352663901256
         Total DFT energy =     -114.483252897895
         Total SCF energy =   -150.944737548327
         Total SCF energy =   -112.352729934759
         Total DFT energy =     -114.483254562261
         Total SCF energy =   -150.944650347837
         Total SCF energy =   -112.352618990225
         Total DFT energy =     -114.483230743695
         Total SCF energy =   -150.944694347359
         Total SCF energy =   -112.352674857786
         Total DFT energy =     -114.483242933591
         Total SCF energy =   -150.944694347359
         Total SCF energy =   -112.352674857786
         Total DFT energy =     -114.483242937476
         Total SCF energy =   -150.944694432014
         Total SCF energy =   -112.352674944913
         Total DFT energy =     -114.483243007140
         Total SCF energy =   -150.944694400297
         Total SCF energy =   -112.352674944913
         Total DFT energy =     -114.483243007141
         Total SCF energy =   -150.944694396245
         Total SCF energy =   -112.352674944913
         Total DFT energy =     -114.483243007140
         Total SCF energy =   -150.944694371275
         Total SCF energy =   -112.352674944913
         Total DFT energy =     -114.483243007128
         Total SCF energy =   -150.944694283497
         Total SCF energy =   -112.352674944913
         Total DFT energy =     -114.483243007128
         Total SCF energy =   -150.944694317796
         Total SCF energy =   -112.352674944913
         Total DFT energy =     -114.483243007140
         Total SCF energy =   -150.944694185919
         Total SCF energy =   -112.352674944913
         Total DFT energy =     -114.483243007128
         Total SCF energy =   -150.944694268898
         Total SCF energy =   -112.352674944913
         Total DFT energy =     -114.483243006990
         Total SCF energy =   -150.944694424255
         Total SCF energy =   -112.352674944913
         Total DFT energy =     -114.483243007128
         Total SCF energy =   -150.944694443367
         Total SCF energy =   -112.352674944913
         Total DFT energy =     -114.483243007128
         Total SCF energy =   -150.944694435047
         Total SCF energy =   -112.352674944913
         Total DFT energy =     -114.483243007128
         Total SCF energy =   -150.944694435047
         Total SCF energy =   -112.352674944913
         Total DFT energy =     -114.483243007168
         Total SCF energy =   -150.944692548797
         Total SCF energy =   -112.352678519827
         Total DFT energy =     -114.483248112387
         Total SCF energy =   -150.944695540540
         Total SCF energy =   -112.352671300281
         Total DFT energy =     -114.483237847258
         Total SCF energy =   -150.944694559192
         Total SCF energy =   -112.352669029999
         Total DFT energy =     -114.483236618917
         Total SCF energy =   -150.944693661864
         Total SCF energy =   -112.352680648654
         Total DFT energy =     -114.483249239680
         Total SCF energy =   -150.944694071258
         Total SCF energy =   -112.352674940621
         Total DFT energy =     -114.483242999397
         Total SCF energy =   -150.944694071259
         Total SCF energy =   -112.352674940621
         Total DFT energy =     -114.483243003178
 Zero-Point correction to Energy  =   39.299 kcal/mol  (  0.062627 au)
 Thermal correction to Energy     =   41.695 kcal/mol  (  0.066445 au)
 Thermal correction to Enthalpy   =   42.287 kcal/mol  (  0.067388 au)
 Total Entropy                    =   62.502 cal/mol-K
   - Translational                =   37.256 cal/mol-K (mol. weight =  44.0262)
   - Rotational                   =   21.737 cal/mol-K (symmetry #  =        1)
   - Vibrational                  =    3.510 cal/mol-K
   - Translational                  =    2.979 cal/mol-K
   - Rotational                     =    2.979 cal/mol-K
   - Vibrational                    =    4.654 cal/mol-K
 P.Frequency       -0.00       -0.00       -0.00        0.00        0.00        0.00
 P.Frequency      166.89      490.00      861.90      989.45     1253.29     1260.83
 P.Frequency     1429.10     1691.42     1718.85     1804.82     1816.35     2956.40
 P.Frequency     3563.62     3737.98     3762.31
 Total times  cpu:       22.8s     wall:       27.3s
