============================== echo of input deck ==============================
# COSMO-SMD solvation results:
#             internal energy in gas <Psi(g)|H|Psi(g)> =     -1714.7064243007
#    total free energy in solvent including G(SMD-CDS) =     -1714.7183080244
#                       G(SMD-CDS) energy contribution =         0.0129170141 (    8.11 kcal/mol)
#     1 M fixed-concentration free energy of solvation =        -0.0118837237 (   -7.46 kcal/mol)
echo 'SMD/RHF/6-31G(d) solvation energy - 2,2-dichloroethenyl dimethyl phosphate in water'

start PhoWat_SMD_HF

geometry nocenter
   C       0.886551   -0.538770   -0.226736
   C       2.109190   -0.074290    0.021097
   CL      3.518080   -0.909728   -0.542886
   CL      2.401932    1.375529    0.919716
   C      -2.465672   -0.979038    2.029287
   C      -2.068974    2.143247   -0.946365
   P      -1.697440   -0.391916   -0.374109
   O      -0.220540    0.125132    0.263049
   O      -1.640803   -1.790632   -0.933197
   O      -2.118546    0.766386   -1.436114
   O      -2.666476   -0.071969    0.901438
   H      -3.288305   -0.770059    2.717206
   H      -2.507263   -2.021027    1.692938
   H      -1.504946   -0.768477    2.512545
   H      -1.056232    2.392251   -0.612402
   H      -2.345630    2.756441   -1.807206
   H      -2.787066    2.283774   -0.132406
   H       0.715195   -1.451011   -0.790243
symmetry c1
end

basis
 * library 6-31G*
end

dft
 XC HFexch
end

cosmo
 do_cosmo_smd true
end

task dft energy
================================================================================

 Output coordinates in angstroms (scale by  1.889725989 to convert to a.u.)

  No.       Tag          Charge          X              Y              Z
 ---- ---------------- ---------- -------------- -------------- --------------
    1 C                    6.0000     0.88655100    -0.53877000    -0.22673600
    2 C                    6.0000     2.10919000    -0.07429000     0.02109700
    3 CL                  17.0000     3.51808000    -0.90972800    -0.54288600
    4 CL                  17.0000     2.40193200     1.37552900     0.91971600
    5 C                    6.0000    -2.46567200    -0.97903800     2.02928700
    6 C                    6.0000    -2.06897400     2.14324700    -0.94636500
    7 P                   15.0000    -1.69744000    -0.39191600    -0.37410900
    8 O                    8.0000    -0.22054000     0.12513200     0.26304900
    9 O                    8.0000    -1.64080300    -1.79063200    -0.93319700
   10 O                    8.0000    -2.11854600     0.76638600    -1.43611400
   11 O                    8.0000    -2.66647600    -0.07196900     0.90143800
   12 H                    1.0000    -3.28830500    -0.77005900     2.71720600
   13 H                    1.0000    -2.50726300    -2.02102700     1.69293800
   14 H                    1.0000    -1.50494600    -0.76847700     2.51254500
   15 H                    1.0000    -1.05623200     2.39225100    -0.61240200
   16 H                    1.0000    -2.34563000     2.75644100    -1.80720600
   17 H                    1.0000    -2.78706600     2.28377400    -0.13240600
   18 H                    1.0000     0.71519500    -1.45101100    -0.79024300

         Total DFT energy =    -1714.718307344138

                       DFT Final Molecular Orbital Analysis
                       ------------------------------------

 Vector    1  Occ=2.000000D+00  E=-1.048557D+02

 Vector  112  Occ=0.000000D+00  E= 1.162249D+00

 Vector  113  Occ=0.000000D+00  E= 1.175803D+00

 Vector  114  Occ=0.000000D+00  E= 1.187382D+00

 Vector  115  Occ=0.000000D+00  E= 1.198998D+00

 Vector  116  Occ=0.000000D+00  E= 1.209242D+00

 Vector  117  Occ=0.000000D+00  E= 1.228432D+00

 Vector  118  Occ=0.000000D+00  E= 1.241563D+00

 Vector  119  Occ=0.000000D+00  E= 1.254065D+00

 Vector  120  Occ=0.000000D+00  E= 1.261206D+00

 Vector  121  Occ=0.000000D+00  E= 1.283307D+00

 Vector  122  Occ=0.000000D+00  E= 1.314882D+00

 Vector  123  Occ=0.000000D+00  E= 1.331262D+00

 Vector  124  Occ=0.000000D+00  E= 1.336399D+00

 Vector  125  Occ=0.000000D+00  E= 1.372753D+00

 Vector  126  Occ=0.000000D+00  E= 1.373211D+00

 Vector  127  Occ=0.000000D+00  E= 1.376876D+00

 Vector  128  Occ=0.000000D+00  E= 1.396391D+00

 Vector  129  Occ=0.000000D+00  E= 1.437161D+00

 Vector  130  Occ=0.000000D+00  E= 1.448796D+00

 Vector  131  Occ=0.000000D+00  E= 1.520670D+00

 Vector  132  Occ=0.000000D+00  E= 1.537764D+00

 Vector  133  Occ=0.000000D+00  E= 1.557744D+00

 Vector  134  Occ=0.000000D+00  E= 1.567254D+00

 Vector  135  Occ=0.000000D+00  E= 1.609209D+00

 Vector  136  Occ=0.000000D+00  E= 1.672918D+00

 Vector  137  Occ=0.000000D+00  E= 1.690295D+00

 Vector  138  Occ=0.000000D+00  E= 1.733481D+00

 Vector  139  Occ=0.000000D+00  E= 1.739962D+00

 Vector  140  Occ=0.000000D+00  E= 1.763559D+00

 Vector  141  Occ=0.000000D+00  E= 1.766413D+00

 Vector  142  Occ=0.000000D+00  E= 1.803704D+00

 Vector  143  Occ=0.000000D+00  E= 1.826489D+00

 Vector  144  Occ=0.000000D+00  E= 1.863973D+00

 Vector  145  Occ=0.000000D+00  E= 1.932371D+00

 Vector  146  Occ=0.000000D+00  E= 1.964928D+00

 Vector  147  Occ=0.000000D+00  E= 2.047346D+00

 Vector  148  Occ=0.000000D+00  E= 2.066436D+00

 Vector  149  Occ=0.000000D+00  E= 2.074949D+00

 Vector  150  Occ=0.000000D+00  E= 2.091304D+00

 Vector  151  Occ=0.000000D+00  E= 2.145238D+00

 Vector  152  Occ=0.000000D+00  E= 2.201876D+00

 Vector  153  Occ=0.000000D+00  E= 2.230227D+00

 Vector  154  Occ=0.000000D+00  E= 2.258968D+00

 Vector  155  Occ=0.000000D+00  E= 2.283060D+00

 Vector  156  Occ=0.000000D+00  E= 2.303958D+00

 Vector  157  Occ=0.000000D+00  E= 2.312565D+00

 Vector  158  Occ=0.000000D+00  E= 2.369237D+00

 Vector  159  Occ=0.000000D+00  E= 2.382655D+00

 Vector  160  Occ=0.000000D+00  E= 2.418803D+00

 Vector  161  Occ=0.000000D+00  E= 2.436524D+00

 Vector  162  Occ=0.000000D+00  E= 2.467608D+00

 Vector  163  Occ=0.000000D+00  E= 2.492517D+00

 Vector  164  Occ=0.000000D+00  E= 2.502620D+00

 Vector  165  Occ=0.000000D+00  E= 2.572112D+00

 Vector  166  Occ=0.000000D+00  E= 2.582871D+00

 Vector  167  Occ=0.000000D+00  E= 2.631808D+00

 Vector  168  Occ=0.000000D+00  E= 2.661457D+00

 Vector  169  Occ=0.000000D+00  E= 2.672676D+00

 Vector  170  Occ=0.000000D+00  E= 2.684325D+00

 Vector  171  Occ=0.000000D+00  E= 2.720622D+00

 Vector  172  Occ=0.000000D+00  E= 2.771512D+00

 Vector  173  Occ=0.000000D+00  E= 2.873161D+00

 Vector  174  Occ=0.000000D+00  E= 2.926518D+00

 Vector  175  Occ=0.000000D+00  E= 2.997352D+00

 Vector  176  Occ=0.000000D+00  E= 3.051474D+00

 Vector  177  Occ=0.000000D+00  E= 3.139974D+00

 Vector  178  Occ=0.000000D+00  E= 3.162463D+00

 Vector  179  Occ=0.000000D+00  E= 3.194443D+00

 Vector  180  Occ=0.000000D+00  E= 3.286309D+00

 Vector  181  Occ=0.000000D+00  E= 3.878667D+00

 Vector  182  Occ=0.000000D+00  E= 4.179138D+00

 Vector  183  Occ=0.000000D+00  E= 4.294086D+00

 Vector  184  Occ=0.000000D+00  E= 4.344173D+00

 Vector  185  Occ=0.000000D+00  E= 4.404175D+00

 Vector  186  Occ=0.000000D+00  E= 4.505155D+00

 Vector  187  Occ=0.000000D+00  E= 4.656657D+00

 Vector  188  Occ=0.000000D+00  E= 4.660472D+00

 Vector  189  Occ=0.000000D+00  E= 4.683367D+00

 Vector  190  Occ=0.000000D+00  E= 4.722876D+00

 Vector  191  Occ=0.000000D+00  E= 4.797811D+00

     Multipole analysis of the density
     ---------------------------------

     L   x y z        total         alpha         beta         nuclear
     -   - - -        -----         -----         ----         -------
     0   0 0 0     -0.000000    -56.000000    -56.000000    112.000000

     1   1 0 0     -0.678220     -0.339117     -0.339117      0.000013
     1   0 1 0      0.984820      0.492411      0.492411     -0.000002
     1   0 0 1      1.207197      0.603586      0.603586      0.000025

     2   2 0 0    -66.826890  -1094.462481  -1094.462481   2122.098072
     2   1 1 0     -5.728716     -2.864278     -2.864278     -0.000160
     2   1 0 1     -7.372951     -3.728990     -3.728990      0.085029
     2   0 2 0    -61.220322   -280.677296   -280.677296    500.134271
     2   0 1 1     -6.613849     -3.299251     -3.299251     -0.015348

 Total times  cpu:       65.3s     wall:       65.9s
