============================== echo of input deck ==============================
echo
memory total 800 Mb

start asa

#prepare
#  system asa_ref
#  source asa.pdb
#  new_top new_seq
#  new_rst
#  modify atom 2:_CB quantum
#  modify atom 2:2HB quantum
#  modify atom 2:3HB quantum
#  modify atom 2:_OG quantum
#  modify atom 2:_HG quantum
#  center
#  orient
#  solvate
#  fix segments beyond 0.5 2:_OG
#  update lists
#  ignore
#  write asa_ref.rst
#  write asa_ref.pdb   # Write out PDB file to check structure
#end
#task prepare
#

#----------------------------------------
# this can be replaced by
# task shell "cp asa_ref.rst asa_qmmm.rst"
#-----------------------------------------
prepare
read asa_ref.rst
write asa_qmmm.rst
end
task prepare
#----------------------------------------
# noshake solute always have tobe present
# if optimizing classical solvent
#---------------------------------------
md
  system asa_qmmm
  noshake solute
  cells 2 2 2
end

basis "ao basis"
  * library "6-31G*"
end

dft
 print low
 iterations 500
end

#----------------------------------------
# optimization will be done for three
# regions (one after another)
# esp charges will be used where possible
# to speed up calculations
#----------------------------------------
qmmm
region qmlink mm_solute solvent
maxiter 5     5         5
ncycles 3
density espfit
end

task qmmm dft optimize

================================================================================

@ QM/MM Multiple Region Optimization
@ region1:  qmlink    with bfgs      maxiter =  5
@ region2:  mm_solute with lbfgs     maxiter =  5
@ region3:  solvent   with sd        maxiter =  5
@ ncycle =  1
@ Optimizing qmlink     region with bfgs
         Total DFT energy =     -114.780688800404
@ Step       Energy      Delta E   Gmax     Grms     Xrms     Xmax   Walltime
@ ---- ---------------- -------- -------- -------- -------- -------- --------
@    0    -114.03122439  0.0D+00  0.01933  0.00917  0.00000  0.00000      1.2
         Total DFT energy =     -114.783286915054
         Total DFT energy =     -114.783379506940
@    1    -114.03306312 -1.8D-03  0.01188  0.00555  0.03725  0.08416      2.8
         Total DFT energy =     -114.783407091170
         Total DFT energy =     -114.783604234913
@    2    -114.03337649 -3.1D-04  0.00997  0.00511  0.01248  0.02975      4.4
         Total DFT energy =     -114.783535466213
         Total DFT energy =     -114.783779615422
@    3    -114.03375015 -3.7D-04  0.01291  0.00487  0.02322  0.05131      5.9
         Total DFT energy =     -114.783044973181
         Total DFT energy =     -114.783740834121
@    4    -114.03424593 -5.0D-04  0.00674  0.00379  0.03358  0.06554      7.3
         Total DFT energy =     -114.784910972106
         Total DFT energy =     -114.785960121035
@    5    -114.03548741 -1.2D-03  0.01605  0.00625  0.10815  0.22809      8.7
@    5    -114.03548741 -1.2D-03  0.01605  0.00625  0.10815  0.22809      8.7
@ Optimizing mm_solute  region with lbfgs
@ and esp fitted charges for the qm region
@ Step       Energy      Delta E   Gmax     Grms     Xrms     Xmax   Walltime
@ ---- ---------------- -------- -------- -------- -------- -------- --------
@    1       0.72633871  7.3D-01  0.07125  0.01112  0.02295  0.11431      8.8
@    2       0.71927183 -7.1D-03  0.03002  0.00706  0.01140  0.06136      8.8
@    3       0.71161653 -7.7D-03  0.01317  0.00424  0.02429  0.11166      8.9
@    4       0.70871531 -2.9D-03  0.02854  0.00609  0.01802  0.05744      8.9
@    5       0.70546611 -3.2D-03  0.01429  0.00416  0.02015  0.05981      8.9
@ Optimizing solvent    region with sd
@ and esp fitted charges for the qm region
@ Step       Energy      Delta E   SGrms     WGrms     Xmax
@ ---- ---------------- -------- -------- -------- --------
@    1       0.71269615 -1.6D-03  0.00000  0.01835  0.05591
@    2       0.71107094 -1.6D-03  0.00000  0.01840  0.06357
@    3       0.70951194 -1.6D-03  0.00000  0.01845  0.07149
@    4       0.70805592 -1.5D-03  0.00000  0.01851  0.07945
@    5       0.70672988 -1.3D-03  0.00000  0.01856  0.08714
         Total DFT energy =     -114.785891403079
@ QM/MM Energy
@ quantum energy                     -114.785891403 (-.301370E+06  kjoule/mol)
@ quantum energy adjusted            -114.785891403 (-.301370E+06  kjoule/mol)
@ quantum energy internal            -114.772586428 (-.301335E+06  kjoule/mol)
@ Bq-nuclear energy                     0.149573531 (0.392705E+03  kjoule/mol)
@ Bq-electron energy                   -0.162878506 (-.427638E+03  kjoule/mol)
@ classical energy                      0.703168276 (0.184617E+04  kjoule/mol)
@ total qmmm energy                  -114.082723127 (-.299524E+06  kjoule/mol)
@ ncycle =  2
@ Optimizing qmlink     region with bfgs
         Total DFT energy =     -114.785891402428
@ Step       Energy      Delta E   Gmax     Grms     Xrms     Xmax   Walltime
@ ---- ---------------- -------- -------- -------- -------- -------- --------
@    0    -114.08272313  0.0D+00  0.06213  0.01610  0.00000  0.00000     10.0
         Total DFT energy =     -114.786990853050
         Total DFT energy =     -114.787222301042
@    1    -114.08648475 -3.8D-03  0.03483  0.01032  0.08860  0.23212     11.4
         Total DFT energy =     -114.787649046574
         Total DFT energy =     -114.787736831697
@    2    -114.08847803 -2.0D-03  0.00911  0.00469  0.08010  0.24033     12.9
         Total DFT energy =     -114.788832189298
         Total DFT energy =     -114.788598676279
@    3    -114.08886027 -3.8D-04  0.00356  0.00190  0.04634  0.10499     14.4
         Total DFT energy =     -114.788800846626
         Total DFT energy =     -114.788881241760
@    4    -114.08894554 -8.5D-05  0.00318  0.00135  0.01554  0.03519     15.6
         Total DFT energy =     -114.789049678275
         Total DFT energy =     -114.789257034628
@    5    -114.08904927 -1.0D-04  0.00507  0.00163  0.03462  0.09406     17.0
@    5    -114.08904927 -1.0D-04  0.00507  0.00163  0.03462  0.09406     17.0
@ Optimizing mm_solute  region with lbfgs
@ and esp fitted charges for the qm region
@ Step       Energy      Delta E   Gmax     Grms     Xrms     Xmax   Walltime
@ ---- ---------------- -------- -------- -------- -------- -------- --------
@    1       0.69137519  6.9D-01  0.01643  0.00407  0.00790  0.02757     17.1
@    2       0.69014168 -1.2D-03  0.01257  0.00346  0.00515  0.02380     17.1
@    3       0.68571607 -4.4D-03  0.01821  0.00491  0.03885  0.18613     17.1
@    4       0.68429782 -1.4D-03  0.01718  0.00433  0.01398  0.05836     17.1
@    5       0.68316796 -1.1D-03  0.00952  0.00337  0.00702  0.02240     17.1
@ Optimizing solvent    region with sd
@ and esp fitted charges for the qm region
@ Step       Energy      Delta E   SGrms     WGrms     Xmax
@ ---- ---------------- -------- -------- -------- --------
@    1       0.69245919 -4.8D-04  0.00000  0.01863  0.03522
@    2       0.69195450 -5.0D-04  0.00000  0.01865  0.04046
@    3       0.69143137 -5.2D-04  0.00000  0.01868  0.04610
@    4       0.69090129 -5.3D-04  0.00000  0.01871  0.05203
@    5       0.69037739 -5.2D-04  0.00000  0.01874  0.05807
         Total DFT energy =     -114.789226083307
@ QM/MM Energy
@ quantum energy                     -114.789226083 (-.301379E+06  kjoule/mol)
@ quantum energy adjusted            -114.789226083 (-.301379E+06  kjoule/mol)
@ quantum energy internal            -114.772884551 (-.301336E+06  kjoule/mol)
@ Bq-nuclear energy                     0.194027491 (0.509419E+03  kjoule/mol)
@ Bq-electron energy                   -0.210369023 (-.552324E+03  kjoule/mol)
@ classical energy                      0.687523186 (0.180509E+04  kjoule/mol)
@ total qmmm energy                  -114.101702898 (-.299574E+06  kjoule/mol)
@ ncycle =  3
@ Optimizing qmlink     region with bfgs
         Total DFT energy =     -114.789226095477
@ Step       Energy      Delta E   Gmax     Grms     Xrms     Xmax   Walltime
@ ---- ---------------- -------- -------- -------- -------- -------- --------
@    0    -114.10170291  0.0D+00  0.04459  0.01117  0.00000  0.00000     18.2
         Total DFT energy =     -114.789727756220
         Total DFT energy =     -114.789760678373
@    1    -114.10403725 -2.3D-03  0.00971  0.00414  0.09907  0.25996     19.6
         Total DFT energy =     -114.789936838530
         Total DFT energy =     -114.789947203891
@    2    -114.10429392 -2.6D-04  0.00358  0.00159  0.01579  0.03379     20.9
         Total DFT energy =     -114.790150058408
         Total DFT energy =     -114.790189816639
@    3    -114.10434361 -5.0D-05  0.00322  0.00110  0.01199  0.02700     22.2
         Total DFT energy =     -114.790203241333
         Total DFT energy =     -114.790201771922
@    4    -114.10438762 -4.4D-05  0.00160  0.00066  0.02237  0.06159     23.4
         Total DFT energy =     -114.790193920891
         Total DFT energy =     -114.790180839166
@    5    -114.10439487 -7.3D-06  0.00201  0.00081  0.00783  0.01578     24.6
@    5    -114.10439487 -7.3D-06  0.00201  0.00081  0.00783  0.01578     24.6

 Output coordinates in angstroms (scale by  1.889725989 to convert to a.u.)

  No.       Tag          Charge          X              Y              Z
 ---- ---------------- ---------- -------------- -------------- --------------
    1 C                    6.0000     1.10275252     1.65140775    -0.07704650
    2 H                    1.0000     2.00272333     1.04737650    -0.29668368
    3 H                    1.0000     0.93423119     2.26799107    -0.98584276
    4 O                    8.0000     1.40793998     2.42618761     1.05950993
    5 H                    1.0000     0.67963729     3.06760896     1.17304886
    6 C                   -0.0249    -0.08790082     0.67745635     0.13873133

@ Optimizing mm_solute  region with lbfgs
@ and esp fitted charges for the qm region
@ Step       Energy      Delta E   Gmax     Grms     Xrms     Xmax   Walltime
@ ---- ---------------- -------- -------- -------- -------- -------- --------
@    1       0.67730136  6.8D-01  0.01312  0.00327  0.00537  0.02336     24.7
@    2       0.67669495 -6.1D-04  0.01065  0.00248  0.00326  0.01386     24.8
@    3       0.67542500 -1.3D-03  0.00655  0.00212  0.01362  0.06162     24.8
@    4       0.67479117 -6.3D-04  0.01902  0.00358  0.01024  0.03361     24.8
@    5       0.67397252 -8.2D-04  0.01552  0.00321  0.00844  0.02881     24.8
@ Optimizing solvent    region with sd
@ and esp fitted charges for the qm region
@ Step       Energy      Delta E   SGrms     WGrms     Xmax
@ ---- ---------------- -------- -------- -------- --------
@    1       0.68438574 -2.7D-04  0.00000  0.01880  0.02515
@    2       0.68415951 -2.3D-04  0.00000  0.01881  0.02903
@    3       0.68391744 -2.4D-04  0.00000  0.01883  0.03325
@    4       0.68366329 -2.5D-04  0.00000  0.01884  0.03770
@    5       0.68332282 -3.4D-04  0.00000  0.01889  0.04223
         Total DFT energy =     -114.790086166847
@ QM/MM Energy
@ quantum energy                     -114.790086167 (-.301381E+06  kjoule/mol)
@ quantum energy adjusted            -114.790086167 (-.301381E+06  kjoule/mol)
@ quantum energy internal            -114.772848444 (-.301336E+06  kjoule/mol)
@ Bq-nuclear energy                     0.187075511 (0.491167E+03  kjoule/mol)
@ Bq-electron energy                   -0.204313234 (-.536424E+03  kjoule/mol)
@ classical energy                      0.680682774 (0.178713E+04  kjoule/mol)
@ total qmmm energy                  -114.109403393 (-.299594E+06  kjoule/mol)
@  OPTIMIZATION FINISHED
 Total times  cpu:       25.0s     wall:       25.2s
