============================== echo of input deck ==============================
echo
memory total 800 Mb

start asa

#prepare
#  system asa_ref
#  source asa.pdb
#  new_top new_seq
#  new_rst
#  modify atom 2:_CB quantum
#  modify atom 2:2HB quantum
#  modify atom 2:3HB quantum
#  modify atom 2:_OG quantum
#  modify atom 2:_HG quantum
#  center
#  orient
#  solvate
#  fix segments beyond 0.5 2:_OG
#  update lists
#  ignore
#  write asa_ref.rst
#  write asa_ref.pdb   # Write out PDB file to check structure
#end
#task prepare
#

#----------------------------------------
# this can be replaced by
# task shell "cp asa_ref.rst asa_qmmm.rst"
#-----------------------------------------
prepare
read asa_ref.rst
write asa_qmmm.rst
end
task prepare
#----------------------------------------
# noshake solute always have tobe present
# if optimizing classical solvent
#---------------------------------------
md
  system asa_qmmm
  noshake solute
  cells 2 2 2
end

basis "ao basis"
  * library "6-31G*"
end

dft
 print low
 iterations 500
end

#----------------------------------------
# optimization will be done for three
# regions (one after another)
# esp charges will be used where possible
# to speed up calculations
#----------------------------------------
qmmm
region qmlink mm_solute solvent
maxiter 5     5         5
ncycles 3
density espfit
end

task qmmm dft optimize

================================================================================

@ QM/MM Multiple Region Optimization
@ region1:  qmlink    with bfgs      maxiter =  5
@ region2:  mm_solute with lbfgs     maxiter =  5
@ region3:  solvent   with sd        maxiter =  5
@ ncycle =  1
@ Optimizing qmlink     region with bfgs
         Total DFT energy =     -114.780688795974
@ Step       Energy      Delta E   Gmax     Grms     Xrms     Xmax   Walltime
@ ---- ---------------- -------- -------- -------- -------- -------- --------
@    0    -114.03122439  0.0D+00  0.01933  0.00917  0.00000  0.00000      2.4
         Total DFT energy =     -114.783286917241
         Total DFT energy =     -114.783379509001
@    1    -114.03306312 -1.8D-03  0.01188  0.00555  0.03725  0.08416      3.8
         Total DFT energy =     -114.783407097294
         Total DFT energy =     -114.783604236051
@    2    -114.03337649 -3.1D-04  0.00997  0.00511  0.01248  0.02975      5.1
         Total DFT energy =     -114.783535464378
         Total DFT energy =     -114.783779616088
@    3    -114.03375015 -3.7D-04  0.01291  0.00487  0.02322  0.05131      6.4
         Total DFT energy =     -114.783044970460
         Total DFT energy =     -114.783740834815
@    4    -114.03424593 -5.0D-04  0.00674  0.00379  0.03358  0.06554      7.8
         Total DFT energy =     -114.784910971379
         Total DFT energy =     -114.785960105177
@    5    -114.03548741 -1.2D-03  0.01605  0.00625  0.10815  0.22809      9.1
@    5    -114.03548741 -1.2D-03  0.01605  0.00625  0.10815  0.22809      9.1
@ Optimizing mm_solute  region with lbfgs
@ and esp fitted charges for the qm region
@ Step       Energy      Delta E   Gmax     Grms     Xrms     Xmax   Walltime
@ ---- ---------------- -------- -------- -------- -------- -------- --------
@    1       0.72633870  7.3D-01  0.07125  0.01112  0.02295  0.11431      9.2
@    2       0.71927182 -7.1D-03  0.03002  0.00706  0.01140  0.06136      9.2
@    3       0.71161653 -7.7D-03  0.01317  0.00424  0.02429  0.11166      9.2
@    4       0.70871530 -2.9D-03  0.02854  0.00609  0.01802  0.05744      9.2
@    5       0.70546611 -3.2D-03  0.01429  0.00416  0.02015  0.05981      9.2
@ Optimizing solvent    region with sd
@ and esp fitted charges for the qm region
@ Step       Energy      Delta E   SGrms     WGrms     Xmax
@ ---- ---------------- -------- -------- -------- --------
@    1       0.71269617 -1.6D-03  0.00000  0.01835  0.05591
@    2       0.71107092 -1.6D-03  0.00000  0.01840  0.06357
@    3       0.70951193 -1.6D-03  0.00000  0.01845  0.07149
@    4       0.70805594 -1.5D-03  0.00000  0.01851  0.07945
@    5       0.70672987 -1.3D-03  0.00000  0.01856  0.08714
         Total DFT energy =     -114.785891389008
@ QM/MM Energy
@ quantum energy                     -114.785891389 (-.301370E+06  kjoule/mol)
@ quantum energy adjusted            -114.785891389 (-.301370E+06  kjoule/mol)
@ quantum energy internal            -114.772586432 (-.301335E+06  kjoule/mol)
@ Bq-nuclear energy                     0.149573427 (0.392705E+03  kjoule/mol)
@ Bq-electron energy                   -0.162878385 (-.427637E+03  kjoule/mol)
@ classical energy                      0.703168264 (0.184617E+04  kjoule/mol)
@ total qmmm energy                  -114.082723125 (-.299524E+06  kjoule/mol)
@ ncycle =  2
@ Optimizing qmlink     region with bfgs
         Total DFT energy =   -114.785891389008
@ Step       Energy      Delta E   Gmax     Grms     Xrms     Xmax   Walltime
@ ---- ---------------- -------- -------- -------- -------- -------- --------
@    0    -114.08272313  0.0D+00  0.06213  0.01610  0.00000  0.00000     10.2
         Total DFT energy =     -114.786990819845
         Total DFT energy =     -114.787222166972
@    1    -114.08648465 -3.8D-03  0.03483  0.01032  0.08859  0.23208     11.5
         Total DFT energy =     -114.787648891845
         Total DFT energy =     -114.787736501243
@    2    -114.08847770 -2.0D-03  0.00911  0.00469  0.08010  0.24034     12.9
         Total DFT energy =     -114.788832133169
         Total DFT energy =     -114.788598713422
@    3    -114.08886025 -3.8D-04  0.00356  0.00190  0.04636  0.10503     14.2
         Total DFT energy =     -114.788800774900
         Total DFT energy =     -114.788880910075
@    4    -114.08894549 -8.5D-05  0.00318  0.00135  0.01551  0.03510     15.5
         Total DFT energy =     -114.789049482616
         Total DFT energy =     -114.789257038071
@    5    -114.08904922 -1.0D-04  0.00507  0.00163  0.03464  0.09410     16.7
@    5    -114.08904922 -1.0D-04  0.00507  0.00163  0.03464  0.09410     16.7
@ Optimizing mm_solute  region with lbfgs
@ and esp fitted charges for the qm region
@ Step       Energy      Delta E   Gmax     Grms     Xrms     Xmax   Walltime
@ ---- ---------------- -------- -------- -------- -------- -------- --------
@    1       0.69137523  6.9D-01  0.01643  0.00407  0.00791  0.02757     16.8
@    2       0.69014168 -1.2D-03  0.01257  0.00346  0.00515  0.02380     16.9
@    3       0.68571602 -4.4D-03  0.01821  0.00491  0.03885  0.18613     16.9
@    4       0.68429778 -1.4D-03  0.01718  0.00433  0.01398  0.05837     16.9
@    5       0.68316792 -1.1D-03  0.00952  0.00337  0.00702  0.02240     16.9
@ Optimizing solvent    region with sd
@ and esp fitted charges for the qm region
@ Step       Energy      Delta E   SGrms     WGrms     Xmax
@ ---- ---------------- -------- -------- -------- --------
@    1       0.69245919 -4.8D-04  0.00000  0.01863  0.03522
@    2       0.69195446 -5.0D-04  0.00000  0.01865  0.04046
@    3       0.69143134 -5.2D-04  0.00000  0.01868  0.04610
@    4       0.69090128 -5.3D-04  0.00000  0.01871  0.05203
@    5       0.69037736 -5.2D-04  0.00000  0.01874  0.05807
         Total DFT energy =     -114.789226091266
@ QM/MM Energy
@ quantum energy                     -114.789226091 (-.301379E+06  kjoule/mol)
@ quantum energy adjusted            -114.789226091 (-.301379E+06  kjoule/mol)
@ quantum energy internal            -114.772884557 (-.301336E+06  kjoule/mol)
@ Bq-nuclear energy                     0.194028089 (0.509421E+03  kjoule/mol)
@ Bq-electron energy                   -0.210369623 (-.552325E+03  kjoule/mol)
@ classical energy                      0.687523137 (0.180509E+04  kjoule/mol)
@ total qmmm energy                  -114.101702954 (-.299574E+06  kjoule/mol)
@ ncycle =  3
@ Optimizing qmlink     region with bfgs
         Total DFT energy =   -114.789226091266
@ Step       Energy      Delta E   Gmax     Grms     Xrms     Xmax   Walltime
@ ---- ---------------- -------- -------- -------- -------- -------- --------
@    0    -114.10170295  0.0D+00  0.04459  0.01117  0.00000  0.00000     18.0
         Total DFT energy =     -114.789727689998
         Total DFT energy =     -114.789760621652
@    1    -114.10403731 -2.3D-03  0.00971  0.00414  0.09908  0.25998     19.3
         Total DFT energy =     -114.789936981929
         Total DFT energy =     -114.789947411696
@    2    -114.10429403 -2.6D-04  0.00358  0.00159  0.01581  0.03386     20.5
         Total DFT energy =     -114.790150054895
         Total DFT energy =     -114.790190009196
@    3    -114.10434372 -5.0D-05  0.00322  0.00110  0.01198  0.02699     21.7
         Total DFT energy =     -114.790203356017
         Total DFT energy =     -114.790201841739
@    4    -114.10438771 -4.4D-05  0.00160  0.00066  0.02237  0.06159     22.9
         Total DFT energy =     -114.790193984952
         Total DFT energy =     -114.790180891855
@    5    -114.10439496 -7.3D-06  0.00201  0.00081  0.00783  0.01578     24.0
@    5    -114.10439496 -7.3D-06  0.00201  0.00081  0.00783  0.01578     24.0

 Output coordinates in angstroms (scale by  1.889725989 to convert to a.u.)

  No.       Tag          Charge          X              Y              Z
 ---- ---------------- ---------- -------------- -------------- --------------
    1 C                    6.0000     1.10275221     1.65140886    -0.07704599
    2 H                    1.0000     2.00272303     1.04737915    -0.29669156
    3 H                    1.0000     0.93422809     2.26799479    -0.98583829
    4 O                    8.0000     1.40794624     2.42617989     1.05951562
    5 H                    1.0000     0.67964707     3.06760302     1.17305756
    6 C                   -0.0249    -0.08789892     0.67745640     0.13873166

@ Optimizing mm_solute  region with lbfgs
@ and esp fitted charges for the qm region
@ Step       Energy      Delta E   Gmax     Grms     Xrms     Xmax   Walltime
@ ---- ---------------- -------- -------- -------- -------- -------- --------
@    1       0.67730130  6.8D-01  0.01312  0.00327  0.00537  0.02336     24.1
@    2       0.67669491 -6.1D-04  0.01065  0.00248  0.00326  0.01386     24.1
@    3       0.67542496 -1.3D-03  0.00655  0.00212  0.01362  0.06162     24.2
@    4       0.67479112 -6.3D-04  0.01902  0.00358  0.01024  0.03361     24.2
@    5       0.67397247 -8.2D-04  0.01552  0.00321  0.00844  0.02881     24.2
@ Optimizing solvent    region with sd
@ and esp fitted charges for the qm region
@ Step       Energy      Delta E   SGrms     WGrms     Xmax
@ ---- ---------------- -------- -------- -------- --------
@    1       0.68438572 -2.7D-04  0.00000  0.01880  0.02515
@    2       0.68415949 -2.3D-04  0.00000  0.01881  0.02903
@    3       0.68391743 -2.4D-04  0.00000  0.01883  0.03325
@    4       0.68366330 -2.5D-04  0.00000  0.01884  0.03770
@    5       0.68332281 -3.4D-04  0.00000  0.01889  0.04223
         Total DFT energy =     -114.790086214522
@ QM/MM Energy
@ quantum energy                     -114.790086215 (-.301381E+06  kjoule/mol)
@ quantum energy adjusted            -114.790086215 (-.301381E+06  kjoule/mol)
@ quantum energy internal            -114.772848395 (-.301336E+06  kjoule/mol)
@ Bq-nuclear energy                     0.187076792 (0.491170E+03  kjoule/mol)
@ Bq-electron energy                   -0.204314611 (-.536428E+03  kjoule/mol)
@ classical energy                      0.680682770 (0.178713E+04  kjoule/mol)
@ total qmmm energy                  -114.109403444 (-.299594E+06  kjoule/mol)
@  OPTIMIZATION FINISHED
 Total times  cpu:       20.6s     wall:       24.7s
