============================== echo of input deck ==============================
# This test case highlights a bug in that causes the RIMP2 to produce
# wrong answers if the fitting basis and the AO basis contain shells of
# the same angular momentum but having different numbers of basis functions.
# For example, both basis sets could contain an F-shell but the AO basis
# has spherical harmonic F-functions whereas the fitting basis has Cartesian
# F-functions.
# The error lies somewhere in the way the TEXAS integrals are driven. If
# nosegment is specified for the basis set the code goes through the TEXAS
# integrals (and the problems show up). By default the NWCHEM integrals are
# used.
echo
title "He RI-MP2 integrals"
start h2co_rimp2_dat
geometry noautoz
symmetry c1
He   0.0  0.0  0.00
bq   0.0  0.0 -1.50 charge -15.0
bq   0.0  0.0  1.50 charge  15.0
bq  -1.5  0.0  0.00 charge   1.0
bq   1.5  0.0  0.00 charge   1.0
bq   0.0 -1.5  0.00 charge  -1.0
bq   0.0  1.5  0.00 charge  -1.0
end

basis "ri-mp2 basis" cartesian
He   S
      3.73939300E+01         0.10996705
      6.98669000E+00         0.37520477
      1.92344500E+00         0.41847746
He   F
      0.7610000              1.0000000
end

basis "ao basis" cartesian
He   SP
     13.62310172             0.17525420       0.001
      1.99894370             0.89346310       0.45
      0.38294258             0.1000000        0.55
He   F
      0.7610000              1.0000000
end

mp2
  print "basis_order"
end

task rimp2

basis "ao basis" spherical
He   SP
     13.62310172             0.17525420       0.001
      1.99894370             0.89346310       0.45
      0.38294258             0.1000000        0.55
He   F
      0.7610000              1.0000000
end

task rimp2

basis "ri-mp2 basis" spherical
He   S
      3.73939300E+01         0.10996705
      6.98669000E+00         0.37520477
      1.92344500E+00         0.41847746
He   F
      0.7610000              1.0000000
end

basis "ao basis" cartesian
He   SP
     13.62310172             0.17525420       0.001
      1.99894370             0.89346310       0.45
      0.38294258             0.1000000        0.55
He   F
      0.7610000              1.0000000
end

task rimp2

basis "ao basis" spherical
He   SP
     13.62310172             0.17525420       0.001
      1.99894370             0.89346310       0.45
      0.38294258             0.1000000        0.55
He   F
      0.7610000              1.0000000
end

task rimp2
================================================================================

 Output coordinates in angstroms (scale by  1.889725989 to convert to a.u.)

  No.       Tag          Charge          X              Y              Z
 ---- ---------------- ---------- -------------- -------------- --------------
    1 He                   2.0000     0.00000000     0.00000000     0.00000000
    2 bq                 -15.0000     0.00000000     0.00000000    -1.50000000
    3 bq                  15.0000     0.00000000     0.00000000     1.50000000
    4 bq                   1.0000    -1.50000000     0.00000000     0.00000000
    5 bq                   1.0000     1.50000000     0.00000000     0.00000000
    6 bq                  -1.0000     0.00000000    -1.50000000     0.00000000
    7 bq                  -1.0000     0.00000000     1.50000000     0.00000000

         Total SCF energy =     -3.113755689589

 Vector    1  Occ=2.000000D+00  E=-8.868789D-01

 Vector    2  Occ=0.000000D+00  E= 8.781236D-01

 Vector    3  Occ=0.000000D+00  E= 1.165602D+00

 Vector    4  Occ=0.000000D+00  E= 1.584856D+00

 Vector    5  Occ=0.000000D+00  E= 3.228059D+00

 Vector    6  Occ=0.000000D+00  E= 3.268806D+00

 Vector    7  Occ=0.000000D+00  E= 3.328904D+00

 Vector    8  Occ=0.000000D+00  E= 3.372277D+00

 Vector    9  Occ=0.000000D+00  E= 3.406152D+00

 Vector   10  Occ=0.000000D+00  E= 3.497731D+00

 Vector   11  Occ=0.000000D+00  E= 3.534863D+00

          Total MP2 energy            -3.115547053431
         Total SCF energy =     -3.031696062342

 Vector    1  Occ=2.000000D+00  E=-7.721278D-01

 Vector    2  Occ=0.000000D+00  E= 1.798862D+00

 Vector    3  Occ=0.000000D+00  E= 1.989470D+00

 Vector    4  Occ=0.000000D+00  E= 2.566869D+00

 Vector    5  Occ=0.000000D+00  E= 3.245106D+00

 Vector    6  Occ=0.000000D+00  E= 3.288555D+00

 Vector    7  Occ=0.000000D+00  E= 3.348080D+00

 Vector    8  Occ=0.000000D+00  E= 3.389468D+00

 Vector    9  Occ=0.000000D+00  E= 3.425157D+00

 Vector   10  Occ=0.000000D+00  E= 3.514030D+00

 Vector   11  Occ=0.000000D+00  E= 3.552063D+00

          Total MP2 energy            -3.032320657458
         Total SCF energy =     -3.113755689589

 Vector    1  Occ=2.000000D+00  E=-8.868789D-01

 Vector    2  Occ=0.000000D+00  E= 8.781236D-01

 Vector    3  Occ=0.000000D+00  E= 1.165602D+00

 Vector    4  Occ=0.000000D+00  E= 1.584856D+00

 Vector    5  Occ=0.000000D+00  E= 3.228059D+00

 Vector    6  Occ=0.000000D+00  E= 3.268806D+00

 Vector    7  Occ=0.000000D+00  E= 3.328904D+00

 Vector    8  Occ=0.000000D+00  E= 3.372277D+00

 Vector    9  Occ=0.000000D+00  E= 3.406152D+00

 Vector   10  Occ=0.000000D+00  E= 3.497731D+00

 Vector   11  Occ=0.000000D+00  E= 3.534863D+00

          Total MP2 energy            -3.115310133512
         Total SCF energy =     -3.031696062342

 Vector    1  Occ=2.000000D+00  E=-7.721278D-01

 Vector    2  Occ=0.000000D+00  E= 1.798862D+00

 Vector    3  Occ=0.000000D+00  E= 1.989470D+00

 Vector    4  Occ=0.000000D+00  E= 2.566869D+00

 Vector    5  Occ=0.000000D+00  E= 3.245106D+00

 Vector    6  Occ=0.000000D+00  E= 3.288555D+00

 Vector    7  Occ=0.000000D+00  E= 3.348080D+00

 Vector    8  Occ=0.000000D+00  E= 3.389468D+00

 Vector    9  Occ=0.000000D+00  E= 3.425157D+00

 Vector   10  Occ=0.000000D+00  E= 3.514030D+00

 Vector   11  Occ=0.000000D+00  E= 3.552063D+00

       Multipole analysis of the density wrt the origin
       ------------------------------------------------

     L   x y z        total         open         nuclear
     -   - - -        -----         ----         -------
     0   0 0 0     -0.000000      0.000000      2.000000

     1   1 0 0      0.000000      0.000000      0.000000
     1   0 1 0      0.000000      0.000000      0.000000
     1   0 0 1     -0.543908      0.000000      0.000000

     2   2 0 0     -0.355320      0.000000      0.000000
     2   1 1 0     -0.000000      0.000000      0.000000
     2   1 0 1     -0.000000      0.000000      0.000000
     2   0 2 0     -0.343292      0.000000      0.000000
     2   0 1 1      0.000000      0.000000      0.000000

          Total MP2 energy            -3.031976897219
 Total times  cpu:        0.3s     wall:        0.3s
