============================== echo of input deck ==============================
echo

start si2cl6

title "disilicon hexachloride McM-D test"

geometry units angstrom autosym
  Si  0.0     0.0      0.0
  Si  1.35    1.35     1.35
  Cl  2.5     2.5      0.2
  Cl  2.5     0.2      2.5
  Cl  0.2     2.5      2.5
  Cl -1.15   -1.15     1.15
  Cl -1.15    1.15    -1.15
  Cl  1.15   -1.15    -1.15
end

basis segbas spherical noprint
  Si library cc-pvdz
  Cl  library aug-cc-pvdz
end

set atomscf:tags_z Si Cl
set atomscf:z +1.5 -0.5
set int:cando_txs logical false
set int:cando_hnd logical false

scf
 thresh 1e-10
 vectors atomic
end
set "ao basis" segbas
task scf

================================================================================

 Output coordinates in angstroms (scale by  1.889725989 to convert to a.u.)

  No.       Tag          Charge          X              Y              Z
 ---- ---------------- ---------- -------------- -------------- --------------
    1 Si                  14.0000     0.00000000    -0.00000000    -1.16913430
    2 Si                  14.0000    -0.00000000     0.00000000     1.16913430
    3 Cl                  17.0000    -1.32790562     1.32790562     1.83308710
    4 Cl                  17.0000     1.81395281     0.48604719     1.83308710
    5 Cl                  17.0000    -0.48604719    -1.81395281     1.83308710
    6 Cl                  17.0000     1.32790562    -1.32790562    -1.83308710
    7 Cl                  17.0000    -1.81395281    -0.48604719    -1.83308710
    8 Cl                  17.0000     0.48604719     1.81395281    -1.83308710

         Total SCF energy =  -3335.206059405120

 Vector   41  Occ=2.000000D+00  E=-1.180251D+00  Symmetry=a1g

 Vector   42  Occ=2.000000D+00  E=-1.170619D+00  Symmetry=a2u

 Vector   43  Occ=2.000000D+00  E=-1.127486D+00  Symmetry=eu

 Vector   44  Occ=2.000000D+00  E=-1.127486D+00  Symmetry=eu

 Vector   45  Occ=2.000000D+00  E=-1.124541D+00  Symmetry=eg

 Vector   46  Occ=2.000000D+00  E=-1.124541D+00  Symmetry=eg

 Vector   47  Occ=2.000000D+00  E=-7.610963D-01  Symmetry=a1g

 Vector   48  Occ=2.000000D+00  E=-7.006040D-01  Symmetry=a2u

 Vector   49  Occ=2.000000D+00  E=-6.041649D-01  Symmetry=eu

 Vector   50  Occ=2.000000D+00  E=-6.041649D-01  Symmetry=eu

 Vector   51  Occ=2.000000D+00  E=-6.002983D-01  Symmetry=a1g

 Vector   52  Occ=2.000000D+00  E=-5.906997D-01  Symmetry=eg

 Vector   53  Occ=2.000000D+00  E=-5.906997D-01  Symmetry=eg

 Vector   54  Occ=2.000000D+00  E=-5.281094D-01  Symmetry=a2u

 Vector   55  Occ=2.000000D+00  E=-5.225743D-01  Symmetry=eg

 Vector   56  Occ=2.000000D+00  E=-5.225743D-01  Symmetry=eg

 Vector   57  Occ=2.000000D+00  E=-5.164789D-01  Symmetry=eu

 Vector   58  Occ=2.000000D+00  E=-5.164789D-01  Symmetry=eu

 Vector   59  Occ=2.000000D+00  E=-4.981162D-01  Symmetry=eu

 Vector   60  Occ=2.000000D+00  E=-4.981162D-01  Symmetry=eu

 Vector   61  Occ=2.000000D+00  E=-4.832270D-01  Symmetry=eg

 Vector   62  Occ=2.000000D+00  E=-4.832270D-01  Symmetry=eg

 Vector   63  Occ=2.000000D+00  E=-4.758492D-01  Symmetry=a1u

 Vector   64  Occ=2.000000D+00  E=-4.713225D-01  Symmetry=a2g

 Vector   65  Occ=2.000000D+00  E=-4.192673D-01  Symmetry=a1g

 Vector   66  Occ=0.000000D+00  E= 7.854072D-02  Symmetry=eu

 Vector   67  Occ=0.000000D+00  E= 7.854072D-02  Symmetry=eu

 Vector   68  Occ=0.000000D+00  E= 8.148251D-02  Symmetry=a2u

 Vector   69  Occ=0.000000D+00  E= 8.726074D-02  Symmetry=a1g

 Vector   70  Occ=0.000000D+00  E= 1.056947D-01  Symmetry=eg

 Vector   71  Occ=0.000000D+00  E= 1.056947D-01  Symmetry=eg

 Vector   72  Occ=0.000000D+00  E= 1.126507D-01  Symmetry=eu

 Vector   73  Occ=0.000000D+00  E= 1.126507D-01  Symmetry=eu

 Vector   74  Occ=0.000000D+00  E= 1.277139D-01  Symmetry=a2u

 Vector   75  Occ=0.000000D+00  E= 1.292407D-01  Symmetry=a1g

 Vector   76  Occ=0.000000D+00  E= 1.365629D-01  Symmetry=eg

 Vector   77  Occ=0.000000D+00  E= 1.365629D-01  Symmetry=eg

 Vector   78  Occ=0.000000D+00  E= 1.576671D-01  Symmetry=a1g

 Vector   79  Occ=0.000000D+00  E= 1.610293D-01  Symmetry=eu

 Vector   80  Occ=0.000000D+00  E= 1.610293D-01  Symmetry=eu

 Vector   81  Occ=0.000000D+00  E= 1.656760D-01  Symmetry=a2u

 Vector   82  Occ=0.000000D+00  E= 1.718272D-01  Symmetry=eu

 Vector   83  Occ=0.000000D+00  E= 1.718272D-01  Symmetry=eu

 Vector   84  Occ=0.000000D+00  E= 1.730821D-01  Symmetry=a1u

 Vector   85  Occ=0.000000D+00  E= 1.979792D-01  Symmetry=a1g

 Vector   86  Occ=0.000000D+00  E= 2.001897D-01  Symmetry=eg

 Vector   87  Occ=0.000000D+00  E= 2.001897D-01  Symmetry=eg

 Vector   88  Occ=0.000000D+00  E= 2.039832D-01  Symmetry=a2u

 Vector   89  Occ=0.000000D+00  E= 2.050792D-01  Symmetry=a2g

 Vector   90  Occ=0.000000D+00  E= 2.231567D-01  Symmetry=eg

 Vector   91  Occ=0.000000D+00  E= 2.231567D-01  Symmetry=eg

 Vector   92  Occ=0.000000D+00  E= 2.388146D-01  Symmetry=a2u

 Vector   93  Occ=0.000000D+00  E= 2.646132D-01  Symmetry=eg

 Vector   94  Occ=0.000000D+00  E= 2.646132D-01  Symmetry=eg

 Vector   95  Occ=0.000000D+00  E= 2.825096D-01  Symmetry=eu

 Vector   96  Occ=0.000000D+00  E= 2.825096D-01  Symmetry=eu

 Vector   97  Occ=0.000000D+00  E= 3.264006D-01  Symmetry=eu

 Vector   98  Occ=0.000000D+00  E= 3.264006D-01  Symmetry=eu

 Vector   99  Occ=0.000000D+00  E= 3.653868D-01  Symmetry=a1g

 Vector  100  Occ=0.000000D+00  E= 3.917741D-01  Symmetry=a2u

 Vector  101  Occ=0.000000D+00  E= 4.005736D-01  Symmetry=eg

 Vector  102  Occ=0.000000D+00  E= 4.005736D-01  Symmetry=eg

 Vector  103  Occ=0.000000D+00  E= 4.355287D-01  Symmetry=eu

 Vector  104  Occ=0.000000D+00  E= 4.355287D-01  Symmetry=eu

 Vector  105  Occ=0.000000D+00  E= 4.415834D-01  Symmetry=a1g

 Vector  106  Occ=0.000000D+00  E= 4.518361D-01  Symmetry=eg

 Vector  107  Occ=0.000000D+00  E= 4.518361D-01  Symmetry=eg

 Vector  108  Occ=0.000000D+00  E= 4.544108D-01  Symmetry=a1u

 Vector  109  Occ=0.000000D+00  E= 4.833769D-01  Symmetry=eu

 Vector  110  Occ=0.000000D+00  E= 4.833769D-01  Symmetry=eu

 Vector  111  Occ=0.000000D+00  E= 4.986679D-01  Symmetry=eg

 Vector  112  Occ=0.000000D+00  E= 4.986679D-01  Symmetry=eg

 Vector  113  Occ=0.000000D+00  E= 5.103020D-01  Symmetry=eu

       Multipole analysis of the density wrt the origin
       ------------------------------------------------

     L   x y z        total         open         nuclear
     -   - - -        -----         ----         -------
     0   0 0 0      0.000000      0.000000    130.000000

     1   1 0 0      0.000000      0.000000      0.000000
     1   0 1 0      0.000000      0.000000     -0.000000
     1   0 0 1      0.000000      0.000000      0.000000

     2   2 0 0    -76.275048      0.000000    642.291627
     2   1 1 0     -0.000000      0.000000      0.000000
     2   1 0 1      0.000000      0.000000      0.000000
     2   0 2 0    -76.275048      0.000000    642.291627
     2   0 1 1      0.000000      0.000000      0.000000

 Total times  cpu:       91.5s     wall:       91.6s
