 Output coordinates in angstroms (scale by  1.889725989 to convert to a.u.)

  No.       Tag          Charge          X              Y              Z
 ---- ---------------- ---------- -------------- -------------- --------------
    1 O                    8.0000     1.00000000     0.00000000     0.00000000
    2 bq_H                 0.0000     0.00000000     0.00000000     0.00000000

         Total SCF energy =    -73.702939215606

 Vector    2  Occ=1.000000D+00  E=-1.687243D+00

 Vector    3  Occ=1.000000D+00  E=-9.639227D-01

 Vector    4  Occ=1.000000D+00  E=-8.937190D-01

 Vector    5  Occ=0.000000D+00  E=-2.507821D-01

 Vector    2  Occ=1.000000D+00  E=-1.687243D+00

 Vector    3  Occ=1.000000D+00  E=-9.639227D-01

 Vector    4  Occ=1.000000D+00  E=-8.937190D-01

 Vector    5  Occ=0.000000D+00  E=-2.507821D-01

 Zero-Point correction to Energy  =    0.000 kcal/mol  (  0.000000 au)
 Thermal correction to Energy     =    1.481 kcal/mol  (  0.002359 au)
 Thermal correction to Enthalpy   =    2.073 kcal/mol  (  0.003303 au)
 Total Entropy                    = Infinity cal/mol-K
   - Translational                =   34.239 cal/mol-K (mol. weight =  15.9949)
   - Rotational                   = Infinity cal/mol-K (symmetry #  =        1)
   - Vibrational                  =    0.000 cal/mol-K
   - Translational                  =    2.979 cal/mol-K
   - Rotational                     =    1.986 cal/mol-K
   - Vibrational                    =    0.000 cal/mol-K
 P.Frequency       -0.00       -0.00        0.00        0.00        0.00        0.00
         Total SCF energy =    -73.138684619239

 Vector    2  Occ=1.000000D+00  E=-1.569375D+00

 Vector    3  Occ=1.000000D+00  E=-8.931357D-01

 Vector    4  Occ=1.000000D+00  E=-8.002811D-01

 Vector    5  Occ=0.000000D+00  E=-2.501988D-01

 Vector    2  Occ=1.000000D+00  E=-1.569375D+00

 Vector    3  Occ=1.000000D+00  E=-8.931357D-01

 Vector    4  Occ=1.000000D+00  E=-8.002811D-01

 Vector    5  Occ=0.000000D+00  E=-2.501988D-01

 Zero-Point correction to Energy  =    4.729 kcal/mol  (  0.007537 au)
 Thermal correction to Energy     =    6.210 kcal/mol  (  0.009896 au)
 Thermal correction to Enthalpy   =    6.802 kcal/mol  (  0.010840 au)
 Total Entropy                    = Infinity cal/mol-K
   - Translational                =   34.239 cal/mol-K (mol. weight =  15.9949)
   - Rotational                   = Infinity cal/mol-K (symmetry #  =        1)
   - Vibrational                  =    0.000 cal/mol-K
   - Translational                  =    2.979 cal/mol-K
   - Rotational                     =    1.986 cal/mol-K
   - Vibrational                    =    0.000 cal/mol-K
 P.Frequency       -0.00       -0.00        0.00        0.00        0.00     3309.74
         Total SCF energy =    -73.138684619239

 Vector    2  Occ=1.000000D+00  E=-1.569375D+00

 Vector    3  Occ=1.000000D+00  E=-8.931357D-01

 Vector    4  Occ=1.000000D+00  E=-8.002811D-01

 Vector    5  Occ=0.000000D+00  E=-2.501988D-01

 Vector    2  Occ=1.000000D+00  E=-1.569375D+00

 Vector    3  Occ=1.000000D+00  E=-8.931357D-01

 Vector    4  Occ=1.000000D+00  E=-8.002811D-01

 Vector    5  Occ=0.000000D+00  E=-2.501988D-01

 Zero-Point correction to Energy  =    4.729 kcal/mol  (  0.007537 au)
 Thermal correction to Energy     =    6.210 kcal/mol  (  0.009896 au)
 Thermal correction to Enthalpy   =    6.802 kcal/mol  (  0.010840 au)
 Total Entropy                    = Infinity cal/mol-K
   - Translational                =   34.239 cal/mol-K (mol. weight =  15.9949)
   - Rotational                   = Infinity cal/mol-K (symmetry #  =        1)
   - Vibrational                  =    0.000 cal/mol-K
   - Translational                  =    2.979 cal/mol-K
   - Rotational                     =    1.986 cal/mol-K
   - Vibrational                    =    0.000 cal/mol-K
 P.Frequency       -0.00       -0.00        0.00        0.00        0.00     3309.74
         Total SCF energy =    -73.420811917349

 Vector    2  Occ=1.000000D+00  E=-1.569375D+00

 Vector    3  Occ=1.000000D+00  E=-8.931357D-01

 Vector    4  Occ=1.000000D+00  E=-8.002811D-01

 Vector    5  Occ=0.000000D+00  E=-2.501988D-01

 Vector    2  Occ=1.000000D+00  E=-1.687243D+00

 Vector    3  Occ=1.000000D+00  E=-9.639227D-01

 Vector    4  Occ=1.000000D+00  E=-8.937190D-01

 Vector    5  Occ=0.000000D+00  E=-2.507821D-01

 Zero-Point correction to Energy  =    3.344 kcal/mol  (  0.005329 au)
 Thermal correction to Energy     =    4.825 kcal/mol  (  0.007689 au)
 Thermal correction to Enthalpy   =    5.417 kcal/mol  (  0.008632 au)
 Total Entropy                    = Infinity cal/mol-K
   - Translational                =   34.239 cal/mol-K (mol. weight =  15.9949)
   - Rotational                   = Infinity cal/mol-K (symmetry #  =        1)
   - Vibrational                  =    0.000 cal/mol-K
   - Translational                  =    2.979 cal/mol-K
   - Rotational                     =    1.986 cal/mol-K
   - Vibrational                    =    0.003 cal/mol-K
 P.Frequency       -0.00        0.00        0.00        0.00        0.00     2340.34
         Total SCF energy =    -73.420811917349

 Vector    2  Occ=1.000000D+00  E=-1.687243D+00

 Vector    3  Occ=1.000000D+00  E=-9.639227D-01

 Vector    4  Occ=1.000000D+00  E=-8.937190D-01

 Vector    5  Occ=0.000000D+00  E=-2.507821D-01

 Vector    2  Occ=1.000000D+00  E=-1.569375D+00

 Vector    3  Occ=1.000000D+00  E=-8.931357D-01

 Vector    4  Occ=1.000000D+00  E=-8.002811D-01

 Vector    5  Occ=0.000000D+00  E=-2.501988D-01

       Multipole analysis of the density wrt the origin
       ------------------------------------------------

     L   x y z        total         alpha         beta         nuclear
     -   - - -        -----         -----         ----         -------
     0   0 0 0      0.000000     -4.000000     -4.000000      8.000000

     1   1 0 0     -0.000000     -7.558904     -7.558904     15.117808
     1   0 1 0     -0.000000     -0.000000     -0.000000      0.000000
     1   0 0 1     -0.000000     -0.000000     -0.000000      0.000000

     2   2 0 0     -3.440575    -16.004545    -16.004545     28.568514
     2   1 1 0     -0.000000     -0.000000     -0.000000      0.000000
     2   1 0 1     -0.000000     -0.000000     -0.000000      0.000000
     2   0 2 0     -3.432845     -1.716423     -1.716423      0.000000
     2   0 1 1      0.095530      0.047765      0.047765      0.000000

 Zero-Point correction to Energy  =    3.344 kcal/mol  (  0.005329 au)
 Thermal correction to Energy     =    4.825 kcal/mol  (  0.007689 au)
 Thermal correction to Enthalpy   =    5.417 kcal/mol  (  0.008632 au)
 Total Entropy                    = Infinity cal/mol-K
   - Translational                =   34.239 cal/mol-K (mol. weight =  15.9949)
   - Rotational                   = Infinity cal/mol-K (symmetry #  =        1)
   - Vibrational                  =    0.000 cal/mol-K
   - Translational                  =    2.979 cal/mol-K
   - Rotational                     =    1.986 cal/mol-K
   - Vibrational                    =    0.003 cal/mol-K
 P.Frequency       -0.00        0.00        0.00        0.00        0.00     2340.34

 Normal Eigenvalue ||           Projected Infra Red Intensities
  Mode   [cm**-1]  || [atomic units] [(debye/angs)**2] [(KM/mol)] [arbitrary]
 ------ ---------- || -------------- ----------------- ---------- -----------
    1       -0.000 ||    0.000000           0.000         0.000       0.000
    2        0.000 ||    0.000097           0.002         0.094       0.390
    3        0.000 ||    0.014752           0.340        14.381      59.600
    4        0.000 ||    0.000000           0.000         0.000       0.000
    5        0.000 ||    0.000002           0.000         0.002       0.010
    6     2340.337 ||    0.000000           0.000         0.000       0.000
 ----------------------------------------------------------------------------

 Total times  cpu:        0.5s     wall:        0.6s
