============================== echo of input deck ==============================
echo

start tce_polar_ccsd_small

geometry units au
 symmetry d2h
 N  0  0 -1.034
 N  0  0  1.034
end

basis spherical
 * library aug-cc-pVDZ
end

scf
  singlet
  rhf
  thresh 1e-8
end

tce
  scf
  ccsd
  io ga
  2eorb
end

set tce:lineresp T
set tce:respaxis T F T
set tce:afreq 0.00000000 0.08855851 0.104551063 0.12977315 0.15187784 # INF, 514.5, 435.8, 351.1, and 300 nm, respectively

task tce energy
================================================================================

 Output coordinates in a.u. (scale by  1.000000000 to convert to a.u.)

  No.       Tag          Charge          X              Y              Z
 ---- ---------------- ---------- -------------- -------------- --------------
    1 N                    7.0000     0.00000000     0.00000000    -1.03400000
    2 N                    7.0000     0.00000000     0.00000000     1.03400000

         Total SCF energy =   -108.961044957158

 Vector    2  Occ=2.000000D+00  E=-1.569387D+01  Symmetry=b1u

 Vector    3  Occ=2.000000D+00  E=-1.481824D+00  Symmetry=ag

 Vector    4  Occ=2.000000D+00  E=-7.800642D-01  Symmetry=b1u

 Vector    5  Occ=2.000000D+00  E=-6.346215D-01  Symmetry=ag

 Vector    6  Occ=2.000000D+00  E=-6.168799D-01  Symmetry=b3u

 Vector    7  Occ=2.000000D+00  E=-6.168799D-01  Symmetry=b2u

 Vector    8  Occ=0.000000D+00  E= 1.037986D-01  Symmetry=b1u

 Vector    9  Occ=0.000000D+00  E= 1.254421D-01  Symmetry=b2g

 Vector   10  Occ=0.000000D+00  E= 1.254421D-01  Symmetry=b3g

 Vector   11  Occ=0.000000D+00  E= 1.402293D-01  Symmetry=ag

 Vector   12  Occ=0.000000D+00  E= 1.502733D-01  Symmetry=b3u

 Vector   13  Occ=0.000000D+00  E= 1.502733D-01  Symmetry=b2u

 Vector   14  Occ=0.000000D+00  E= 1.961877D-01  Symmetry=ag

 Vector   15  Occ=0.000000D+00  E= 2.540548D-01  Symmetry=b3g

 Vector   16  Occ=0.000000D+00  E= 2.540548D-01  Symmetry=b2g

 Vector   17  Occ=0.000000D+00  E= 3.253842D-01  Symmetry=b1u

 Vector   18  Occ=0.000000D+00  E= 5.862061D-01  Symmetry=ag

       Multipole analysis of the density wrt the origin
       ------------------------------------------------

     L   x y z        total         open         nuclear
     -   - - -        -----         ----         -------
     0   0 0 0     -0.000000      0.000000     14.000000

     1   1 0 0      0.000000      0.000000      0.000000
     1   0 1 0     -0.000000      0.000000      0.000000
     1   0 0 1     -0.000000      0.000000      0.000000

     2   2 0 0     -7.760736      0.000000      0.000000
     2   1 1 0     -0.000000      0.000000      0.000000
     2   1 0 1     -0.000000      0.000000      0.000000
     2   0 2 0     -7.760736      0.000000      0.000000
     2   0 1 1      0.000000      0.000000      0.000000

 CCSD total energy / hartree       =      -109.284347205178534
 Total times  cpu:      191.3s     wall:      200.0s
