============================== echo of input deck ==============================
echo

start tce_hyperpolar_ccsd_small

#permanent_dir /home/jeff/scratch/nwchem
#scratch_dir /home/jeff/scratch/nwchem

#memory stack 1500 mb heap 200 mb global 1500 mb

geometry units au
  symmetry c2v
  H 0       0        0
  F 0       0        1.7328795
end

basis spherical
  * library d-aug-cc-pvdz
end

scf
  singlet
  rhf
  thresh 1.0e-8
end

tce
  scf
  ccsd
  maxiter 1000
  thresh 1.0e-9
  io ga
  2eorb
  2emet 13
  tilesize 28
  attilesize 40
end

set tce:lineresp T
set tce:leftresp T
set tce:respaxis T T T
set tce:afreq 0.0
set tce:bfreq 0.0

task tce energy

================================================================================

 Output coordinates in a.u. (scale by  1.000000000 to convert to a.u.)

  No.       Tag          Charge          X              Y              Z
 ---- ---------------- ---------- -------------- -------------- --------------
    1 H                    1.0000     0.00000000     0.00000000    -1.55959155
    2 F                    9.0000     0.00000000     0.00000000     0.17328795

         Total SCF energy =   -100.033641049370

 Vector    2  Occ=2.000000D+00  E=-1.607421D+00  Symmetry=a1

 Vector    3  Occ=2.000000D+00  E=-7.712145D-01  Symmetry=a1

 Vector    4  Occ=2.000000D+00  E=-6.506296D-01  Symmetry=b2

 Vector    5  Occ=2.000000D+00  E=-6.506296D-01  Symmetry=b1

 Vector    6  Occ=0.000000D+00  E= 7.640582D-03  Symmetry=a1

 Vector    7  Occ=0.000000D+00  E= 3.659671D-02  Symmetry=a1

 Vector    8  Occ=0.000000D+00  E= 4.982755D-02  Symmetry=b2

 Vector    9  Occ=0.000000D+00  E= 4.982755D-02  Symmetry=b1

 Vector   10  Occ=0.000000D+00  E= 5.554502D-02  Symmetry=a1

 Vector   11  Occ=0.000000D+00  E= 9.258592D-02  Symmetry=b2

 Vector   12  Occ=0.000000D+00  E= 9.258592D-02  Symmetry=b1

 Vector   13  Occ=0.000000D+00  E= 9.358868D-02  Symmetry=a1

 Vector   14  Occ=0.000000D+00  E= 1.218411D-01  Symmetry=a1

 Vector   15  Occ=0.000000D+00  E= 2.686348D-01  Symmetry=a1

 Vector   16  Occ=0.000000D+00  E= 2.944297D-01  Symmetry=b1

 Vector   17  Occ=0.000000D+00  E= 2.944297D-01  Symmetry=b2

 Vector   18  Occ=0.000000D+00  E= 3.008406D-01  Symmetry=a1

 Vector   19  Occ=0.000000D+00  E= 4.275567D-01  Symmetry=b2

 Vector   20  Occ=0.000000D+00  E= 4.275567D-01  Symmetry=b1

 Vector   21  Occ=0.000000D+00  E= 4.341052D-01  Symmetry=a1

 Vector   22  Occ=0.000000D+00  E= 4.341052D-01  Symmetry=a2

 Vector   23  Occ=0.000000D+00  E= 4.356458D-01  Symmetry=a1

 Vector   24  Occ=0.000000D+00  E= 5.996718D-01  Symmetry=b2

       Multipole analysis of the density wrt the origin
       ------------------------------------------------

     L   x y z        total         open         nuclear
     -   - - -        -----         ----         -------
     0   0 0 0      0.000000      0.000000     10.000000

     1   1 0 0      0.000000      0.000000      0.000000
     1   0 1 0      0.000000      0.000000      0.000000
     1   0 0 1     -0.755973      0.000000      0.000000

     2   2 0 0     -4.262133      0.000000      0.000000
     2   1 1 0      0.000000      0.000000      0.000000
     2   1 0 1      0.000000      0.000000      0.000000
     2   0 2 0     -4.262133      0.000000      0.000000
     2   0 1 1      0.000000      0.000000      0.000000

 CCSD total energy / hartree       =      -100.262201420063363
 Total times  cpu:       29.1s     wall:       34.1s
