============================== echo of input deck ==============================
# This tests CIS, TDHF, TDDFT functionality at once
# by using a hybrid LDA, GGA, HF functional for
# spin unrestricted reference with symmetry on.

start tddft_n2+

echo

title "TDDFT N2+ 1.0977A B3LYP/6-31G** QA TEST"

charge 1

geometry
symmetry d2h
N 0.0 0.0 -0.54885
N 0.0 0.0  0.54885
end

basis
N library 6-31G**
end

dft
xc b3lyp
mult 2
end

tddft
nroots 10
end

task tddft energy
================================================================================

 Output coordinates in angstroms (scale by  1.889725989 to convert to a.u.)

  No.       Tag          Charge          X              Y              Z
 ---- ---------------- ---------- -------------- -------------- --------------
    1 N                    7.0000     0.00000000     0.00000000    -0.54885000
    2 N                    7.0000     0.00000000     0.00000000     0.54885000

         Total DFT energy =     -108.945393436045

                    DFT Final Alpha Molecular Orbital Analysis
                    ------------------------------------------

 Vector    1  Occ=1.000000D+00  E=-1.494917D+01  Symmetry=ag

 Vector    2  Occ=1.000000D+00  E=-1.494736D+01  Symmetry=b1u

 Vector    3  Occ=1.000000D+00  E=-1.583893D+00  Symmetry=ag

 Vector    4  Occ=1.000000D+00  E=-1.018210D+00  Symmetry=b1u

 Vector    5  Occ=1.000000D+00  E=-9.090879D-01  Symmetry=ag

 Vector    6  Occ=1.000000D+00  E=-8.933356D-01  Symmetry=b2u

 Vector    7  Occ=1.000000D+00  E=-8.933356D-01  Symmetry=b3u

 Vector    8  Occ=0.000000D+00  E=-4.490958D-01  Symmetry=b3g

 Vector    9  Occ=0.000000D+00  E=-4.490958D-01  Symmetry=b2g

 Vector   10  Occ=0.000000D+00  E= 7.250483D-02  Symmetry=b1u

 Vector   11  Occ=0.000000D+00  E= 2.342948D-01  Symmetry=ag

 Vector   12  Occ=0.000000D+00  E= 2.471108D-01  Symmetry=b3u

 Vector   13  Occ=0.000000D+00  E= 2.471108D-01  Symmetry=b2u

 Vector   14  Occ=0.000000D+00  E= 2.703074D-01  Symmetry=ag

 Vector   15  Occ=0.000000D+00  E= 3.480406D-01  Symmetry=b1u

 Vector   16  Occ=0.000000D+00  E= 3.952258D-01  Symmetry=b2g

 Vector   17  Occ=0.000000D+00  E= 3.952258D-01  Symmetry=b3g

 Vector   18  Occ=0.000000D+00  E= 8.915454D-01  Symmetry=b1u

 Vector   19  Occ=0.000000D+00  E= 1.034458D+00  Symmetry=ag

 Vector   20  Occ=0.000000D+00  E= 1.034458D+00  Symmetry=b1g

 Vector   21  Occ=0.000000D+00  E= 1.105698D+00  Symmetry=b3u

 Vector   22  Occ=0.000000D+00  E= 1.105698D+00  Symmetry=b2u

 Vector   23  Occ=0.000000D+00  E= 1.527371D+00  Symmetry=b1u

 Vector   24  Occ=0.000000D+00  E= 1.527371D+00  Symmetry=au

 Vector   25  Occ=0.000000D+00  E= 1.972866D+00  Symmetry=ag

 Vector   26  Occ=0.000000D+00  E= 2.159071D+00  Symmetry=b2g

 Vector   27  Occ=0.000000D+00  E= 2.159071D+00  Symmetry=b3g

 Vector   28  Occ=0.000000D+00  E= 2.367271D+00  Symmetry=b1u

 Vector   29  Occ=0.000000D+00  E= 2.856102D+00  Symmetry=ag

 Vector   30  Occ=0.000000D+00  E= 3.162702D+00  Symmetry=b1u

 Vector    1  Occ=1.000000D+00  E=-1.493673D+01  Symmetry=ag

 Vector    2  Occ=1.000000D+00  E=-1.493519D+01  Symmetry=b1u

 Vector    3  Occ=1.000000D+00  E=-1.555875D+00  Symmetry=ag

 Vector    4  Occ=1.000000D+00  E=-9.264228D-01  Symmetry=b1u

 Vector    5  Occ=1.000000D+00  E=-8.796020D-01  Symmetry=b3u

 Vector    6  Occ=1.000000D+00  E=-8.796020D-01  Symmetry=b2u

 Vector    7  Occ=0.000000D+00  E=-7.296925D-01  Symmetry=ag

 Vector    8  Occ=0.000000D+00  E=-4.251349D-01  Symmetry=b3g

 Vector    9  Occ=0.000000D+00  E=-4.251349D-01  Symmetry=b2g

 Vector   10  Occ=0.000000D+00  E= 8.989113D-02  Symmetry=b1u

 Vector   11  Occ=0.000000D+00  E= 2.516843D-01  Symmetry=ag

 Vector   12  Occ=0.000000D+00  E= 2.535903D-01  Symmetry=b3u

 Vector   13  Occ=0.000000D+00  E= 2.535903D-01  Symmetry=b2u

 Vector   14  Occ=0.000000D+00  E= 3.081730D-01  Symmetry=ag

 Vector   15  Occ=0.000000D+00  E= 4.043490D-01  Symmetry=b3g

 Vector   16  Occ=0.000000D+00  E= 4.043490D-01  Symmetry=b2g

 Vector   17  Occ=0.000000D+00  E= 4.170120D-01  Symmetry=b1u

 Vector   18  Occ=0.000000D+00  E= 8.982059D-01  Symmetry=b1u

 Vector   19  Occ=0.000000D+00  E= 1.043223D+00  Symmetry=ag

 Vector   20  Occ=0.000000D+00  E= 1.043223D+00  Symmetry=b1g

 Vector   21  Occ=0.000000D+00  E= 1.148914D+00  Symmetry=b3u

 Vector   22  Occ=0.000000D+00  E= 1.148914D+00  Symmetry=b2u

 Vector   23  Occ=0.000000D+00  E= 1.540354D+00  Symmetry=au

 Vector   24  Occ=0.000000D+00  E= 1.540354D+00  Symmetry=b1u

 Vector   25  Occ=0.000000D+00  E= 2.020428D+00  Symmetry=ag

 Vector   26  Occ=0.000000D+00  E= 2.201899D+00  Symmetry=b3g

 Vector   27  Occ=0.000000D+00  E= 2.201899D+00  Symmetry=b2g

 Vector   28  Occ=0.000000D+00  E= 2.428084D+00  Symmetry=b1u

 Vector   29  Occ=0.000000D+00  E= 2.881094D+00  Symmetry=ag

 Vector   30  Occ=0.000000D+00  E= 3.196787D+00  Symmetry=b1u

     Multipole analysis of the density
     ---------------------------------

     L   x y z        total         alpha         beta         nuclear
     -   - - -        -----         -----         ----         -------
     0   0 0 0      1.000000     -7.000000     -6.000000     14.000000

     1   1 0 0      0.000000      0.000000      0.000000      0.000000
     1   0 1 0      0.000000      0.000000      0.000000      0.000000
     1   0 0 1      0.000000     -0.000000      0.000000      0.000000

     2   2 0 0     -6.212747     -3.309271     -2.903476      0.000000
     2   1 1 0      0.000000     -0.000000      0.000000      0.000000
     2   1 0 1      0.000000      0.000000      0.000000      0.000000
     2   0 2 0     -6.212747     -3.309271     -2.903476      0.000000
     2   0 1 1     -0.000000     -0.000000     -0.000000      0.000000

  Root   1         b2u            0.039837933 a.u.                1.0840 eV
     Dipole Oscillator Strength                    0.0025355519
  Root   2         b3u            0.039837933 a.u.                1.0840 eV
     Dipole Oscillator Strength                    0.0025355519
  Root   3         b1u            0.116062977 a.u.                3.1582 eV
     Dipole Oscillator Strength                    0.0376740530
  Root   4         b1u            0.254048147 a.u.                6.9130 eV
     Dipole Oscillator Strength                    0.0010674973
  Root   5         b1u            0.288942034 a.u.                7.8625 eV
     Dipole Oscillator Strength                    0.0000000000
  Root   6         au             0.288942040 a.u.                7.8625 eV
     Dipole Oscillator Strength                    0.0000000000
  Root   7         au             0.340791278 a.u.                9.2734 eV
     Dipole Oscillator Strength                    0.0000000000
  Root   8         au             0.351283436 a.u.                9.5589 eV
     Dipole Oscillator Strength                    0.0000000000
  Root   9         b1u            0.363212906 a.u.                9.8835 eV
     Dipole Oscillator Strength                    0.0000000000
  Root  10         au             0.363212907 a.u.                9.8835 eV
     Dipole Oscillator Strength                    0.0000000000
 Total times  cpu:        4.5s     wall:        4.5s
