============================== echo of input deck ==============================
echo
title "Test TPSSH"

start tpssh

geometry
  H     -1.62522691     0.82336660    -0.41716581
  N     -1.18023841    -0.07061179    -0.42251903
  C      0.19940157     0.03911263    -0.37821942
  H      0.77252807    -0.11338046    -1.30706692
  F      0.87977314    -0.05004215     0.77235361
end

basis cartesian
  C library 6-31g*
  N library 6-31g*
  F library 6-31g*
  H library 6-31g
end

dft
 xc xctpssh
 grid xfine
 vectors atomic
end
task dft

dft
  mult 1
  odft
  xc xctpssh
  grid xfine
  vectors atomic
end
task dft

dft
  mult 3
  odft
  xc xctpssh
  grid xfine
  vectors atomic
end
task dft
================================================================================

 Output coordinates in angstroms (scale by  1.889725989 to convert to a.u.)

  No.       Tag          Charge          X              Y              Z
 ---- ---------------- ---------- -------------- -------------- --------------
    1 H                    1.0000    -0.45702107     1.63174773     0.78857687
    2 N                    7.0000    -0.23616506     1.22924561    -0.09824637
    3 C                    6.0000     0.42748187     0.02114609     0.03395304
    4 H                    1.0000     1.51697132    -0.00488043    -0.12981864
    5 F                    9.0000    -0.21907623    -1.15094035    -0.01941687

         Total DFT energy =     -193.794447907158
         Total DFT energy =     -193.794447801016
         Total DFT energy =     -193.746956487027

                    DFT Final Alpha Molecular Orbital Analysis
                    ------------------------------------------

 Vector    1  Occ=1.000000D+00  E=-2.463018D+01

 Vector   19  Occ=0.000000D+00  E= 5.269514D-01

 Vector   20  Occ=0.000000D+00  E= 5.669927D-01

 Vector   21  Occ=0.000000D+00  E= 6.357752D-01

 Vector   22  Occ=0.000000D+00  E= 6.719242D-01

 Vector   23  Occ=0.000000D+00  E= 7.454194D-01

 Vector   24  Occ=0.000000D+00  E= 8.175187D-01

 Vector   25  Occ=0.000000D+00  E= 8.485909D-01

 Vector   26  Occ=0.000000D+00  E= 9.034261D-01

 Vector   27  Occ=0.000000D+00  E= 1.089730D+00

 Vector   28  Occ=0.000000D+00  E= 1.111763D+00

 Vector   29  Occ=0.000000D+00  E= 1.213781D+00

 Vector   30  Occ=0.000000D+00  E= 1.345322D+00

 Vector   31  Occ=0.000000D+00  E= 1.407927D+00

 Vector   32  Occ=0.000000D+00  E= 1.449136D+00

 Vector   33  Occ=0.000000D+00  E= 1.640196D+00

 Vector   34  Occ=0.000000D+00  E= 1.668551D+00

 Vector   35  Occ=0.000000D+00  E= 1.713149D+00

 Vector   36  Occ=0.000000D+00  E= 1.779026D+00

 Vector   37  Occ=0.000000D+00  E= 1.839809D+00

 Vector   38  Occ=0.000000D+00  E= 1.880166D+00

 Vector   39  Occ=0.000000D+00  E= 2.017491D+00

 Vector   40  Occ=0.000000D+00  E= 2.088838D+00

 Vector   41  Occ=0.000000D+00  E= 2.228915D+00

 Vector   42  Occ=0.000000D+00  E= 2.352509D+00

 Vector   43  Occ=0.000000D+00  E= 2.498938D+00

 Vector   44  Occ=0.000000D+00  E= 2.580537D+00

 Vector   45  Occ=0.000000D+00  E= 2.772443D+00

 Vector   46  Occ=0.000000D+00  E= 3.006150D+00

 Vector   47  Occ=0.000000D+00  E= 3.634458D+00

 Vector   48  Occ=0.000000D+00  E= 4.118626D+00

 Vector   49  Occ=0.000000D+00  E= 4.269854D+00

 Vector    1  Occ=1.000000D+00  E=-2.462490D+01

 Vector    2  Occ=1.000000D+00  E=-1.429959D+01

 Vector    3  Occ=1.000000D+00  E=-1.019823D+01

 Vector    4  Occ=1.000000D+00  E=-1.186648D+00

 Vector    5  Occ=1.000000D+00  E=-8.473351D-01

 Vector    6  Occ=1.000000D+00  E=-6.003887D-01

 Vector    7  Occ=1.000000D+00  E=-4.908932D-01

 Vector    8  Occ=1.000000D+00  E=-4.822596D-01

 Vector    9  Occ=1.000000D+00  E=-4.084414D-01

 Vector   10  Occ=1.000000D+00  E=-3.595992D-01

 Vector   11  Occ=1.000000D+00  E=-2.991521D-01

 Vector   12  Occ=0.000000D+00  E=-1.437911D-01

 Vector   13  Occ=0.000000D+00  E=-1.834305D-02

 Vector   14  Occ=0.000000D+00  E= 1.085102D-01

 Vector   15  Occ=0.000000D+00  E= 1.497439D-01

 Vector   16  Occ=0.000000D+00  E= 2.159667D-01

 Vector   17  Occ=0.000000D+00  E= 3.082915D-01

 Vector   18  Occ=0.000000D+00  E= 5.493896D-01

 Vector   19  Occ=0.000000D+00  E= 5.799368D-01

 Vector   20  Occ=0.000000D+00  E= 6.026030D-01

 Vector   21  Occ=0.000000D+00  E= 6.923470D-01

 Vector   22  Occ=0.000000D+00  E= 7.032746D-01

 Vector   23  Occ=0.000000D+00  E= 8.023892D-01

 Vector   24  Occ=0.000000D+00  E= 8.576659D-01

 Vector   25  Occ=0.000000D+00  E= 8.922828D-01

 Vector   26  Occ=0.000000D+00  E= 9.363848D-01

 Vector   27  Occ=0.000000D+00  E= 1.107614D+00

 Vector   28  Occ=0.000000D+00  E= 1.144264D+00

 Vector   29  Occ=0.000000D+00  E= 1.237243D+00

 Vector   30  Occ=0.000000D+00  E= 1.362418D+00

 Vector   31  Occ=0.000000D+00  E= 1.446806D+00

 Vector   32  Occ=0.000000D+00  E= 1.499995D+00

 Vector   33  Occ=0.000000D+00  E= 1.689062D+00

 Vector   34  Occ=0.000000D+00  E= 1.726497D+00

 Vector   35  Occ=0.000000D+00  E= 1.745790D+00

 Vector   36  Occ=0.000000D+00  E= 1.798659D+00

 Vector   37  Occ=0.000000D+00  E= 1.858795D+00

 Vector   38  Occ=0.000000D+00  E= 1.913292D+00

 Vector   39  Occ=0.000000D+00  E= 2.086411D+00

 Vector   40  Occ=0.000000D+00  E= 2.165787D+00

 Vector   41  Occ=0.000000D+00  E= 2.270117D+00

 Vector   42  Occ=0.000000D+00  E= 2.410020D+00

 Vector   43  Occ=0.000000D+00  E= 2.550238D+00

 Vector   44  Occ=0.000000D+00  E= 2.632550D+00

 Vector   45  Occ=0.000000D+00  E= 2.813720D+00

 Vector   46  Occ=0.000000D+00  E= 3.028766D+00

 Vector   47  Occ=0.000000D+00  E= 3.697762D+00

 Vector   48  Occ=0.000000D+00  E= 4.142690D+00

 Vector   49  Occ=0.000000D+00  E= 4.309694D+00

     Multipole analysis of the density
     ---------------------------------

     L   x y z        total         alpha         beta         nuclear
     -   - - -        -----         -----         ----         -------
     0   0 0 0     -0.000000    -13.000000    -11.000000     24.000000

     1   1 0 0      0.290132      0.036985      0.253148     -0.000000
     1   0 1 0      0.303116     -0.989709      1.292825     -0.000000
     1   0 0 1      0.505342      0.208831      0.296511      0.000000

     2   2 0 0    -11.284626    -14.994984    -12.105464     15.815822
     2   1 1 0     -0.174301      1.139933      0.334705     -1.648939
     2   1 0 1     -0.778828     -0.066231      0.249952     -0.962548
     2   0 2 0    -12.941131    -55.379435    -47.426080     89.864384
     2   0 1 1      2.006516     -0.000849     -0.304708      2.312073

 Total times  cpu:       22.2s     wall:       22.3s
