============================== echo of input deck ==============================
echo
start

geometry noautoz units au
  Xe 0 0 0
end

basis spherical
 xe library "DZVP (DFT Orbital)"
end

dft
 grid xfine
 iterations 100
end

relativistic
   zora on
end

task dft energy
================================================================================

 Output coordinates in a.u. (scale by  1.000000000 to convert to a.u.)

  No.       Tag          Charge          X              Y              Z
 ---- ---------------- ---------- -------------- -------------- --------------
    1 Xe                  54.0000     0.00000000     0.00000000     0.00000000

         Total DFT energy =    -7499.170349124029

                       DFT Final Molecular Orbital Analysis
                       ------------------------------------

 Vector    1  Occ=2.000000D+00  E=-1.255185D+03

 Vector    2  Occ=2.000000D+00  E=-1.950412D+02

 Vector    3  Occ=2.000000D+00  E=-1.781621D+02

 Vector    4  Occ=2.000000D+00  E=-1.781621D+02

 Vector    5  Occ=2.000000D+00  E=-1.781621D+02

 Vector    6  Occ=2.000000D+00  E=-3.981925D+01

 Vector    7  Occ=2.000000D+00  E=-3.413442D+01

 Vector    8  Occ=2.000000D+00  E=-3.413442D+01

 Vector    9  Occ=2.000000D+00  E=-3.413442D+01

 Vector   10  Occ=2.000000D+00  E=-2.466215D+01

 Vector   11  Occ=2.000000D+00  E=-2.466215D+01

 Vector   12  Occ=2.000000D+00  E=-2.466215D+01

 Vector   13  Occ=2.000000D+00  E=-2.466215D+01

 Vector   14  Occ=2.000000D+00  E=-2.466215D+01

 Vector   15  Occ=2.000000D+00  E=-7.138872D+00

 Vector   16  Occ=2.000000D+00  E=-5.272158D+00

 Vector   17  Occ=2.000000D+00  E=-5.272158D+00

 Vector   18  Occ=2.000000D+00  E=-5.272158D+00

 Vector   19  Occ=2.000000D+00  E=-2.282005D+00

 Vector   20  Occ=2.000000D+00  E=-2.282005D+00

 Vector   21  Occ=2.000000D+00  E=-2.282005D+00

 Vector   22  Occ=2.000000D+00  E=-2.282005D+00

 Vector   23  Occ=2.000000D+00  E=-2.282005D+00

 Vector   24  Occ=2.000000D+00  E=-7.078214D-01

 Vector   25  Occ=2.000000D+00  E=-3.086985D-01

 Vector   26  Occ=2.000000D+00  E=-3.086985D-01

 Vector   27  Occ=2.000000D+00  E=-3.086985D-01

 Vector   28  Occ=0.000000D+00  E= 1.779437D-01

 Vector   29  Occ=0.000000D+00  E= 1.779437D-01

 Vector   30  Occ=0.000000D+00  E= 1.779437D-01

 Vector   31  Occ=0.000000D+00  E= 2.570384D-01

 Vector   32  Occ=0.000000D+00  E= 2.839247D-01

 Vector   33  Occ=0.000000D+00  E= 2.839247D-01

 Vector   34  Occ=0.000000D+00  E= 2.839247D-01

 Vector   35  Occ=0.000000D+00  E= 2.839247D-01

 Vector   36  Occ=0.000000D+00  E= 2.839247D-01

 Total times  cpu:        2.2s     wall:        2.2s
